# OOMMF: rectangular mesh v1.0
# Segment count: 1
# Begin: Segment
# Begin: Header
# Title: /home/arne/postdoc/les/ingenieursproject/oommf/test.field0000-pass00410.omf
# Desc: Field Index: 0
# Desc: Applied field (T): 0 0 0
# Desc: Iteration: 410
# Desc: Time (s): 3.4511309701021783e-10
# Desc: |m x h|: 0.0016719914475780632
# Desc: User Comment:
# meshtype: rectangular
# meshunit: m
# xbase: 1.953125e-09
# ybase: 1.953125e-09
# zbase: 1.5e-09
# xstepsize: 3.90625e-09
# ystepsize: 3.90625e-09
# zstepsize: 3e-09
# xnodes: 128
# ynodes: 32
# znodes: 1
# xmin: 0
# ymin: 0
# zmin: 0
# xmax: 5e-07
# ymax: 1.25e-07
# zmax: 3e-09
# valueunit: A/m
# valuemultiplier: 800000
# ValueRangeMinMag: 1e-08
# ValueRangeMaxMag: 1
# End: Header
# Begin: Data Text
 0.75803744792938232  0.65221059322357178  0.00076580303721129894
 0.78371632099151611  0.62111848592758179  0.00074434617999941111
 0.81076085567474365  0.58537703752517700  0.00073657016037032008
 0.83612692356109619  0.54853546619415283  0.00074291846249252558
 0.85905921459197998  0.51187562942504883  0.00075941922841593623
 0.87945401668548584  0.47598320245742798  0.00078220776049420238
 0.89742732048034668  0.44116166234016418  0.00080823019379749894
 0.91316783428192139  0.40758284926414490  0.00083518546307459474
 0.92688101530075073  0.37535423040390015  0.00086134724551811814
 0.93876713514328003  0.34455105662345886  0.00088541832519695163
 0.94901424646377563  0.31523185968399048  0.00090643845032900572
 0.95779681205749512  0.28744456171989441  0.00092373148072510958
 0.96527671813964844  0.26122787594795227  0.00093687395565211773
 0.97160416841506958  0.23661021888256073  0.00094567117048427463
 0.97691905498504639  0.21360769867897034  0.00095013272948563099
 0.98135095834732056  0.19222234189510345  0.00095044355839490891
 0.98501938581466675  0.17244093120098114  0.00094693026039749384
 0.98803377151489258  0.15423476696014404  0.00094002444529905915
 0.99049293994903564  0.13756044209003448  0.00093022576766088605
 0.99248522520065308  0.12236131727695465  0.00091806723503395915
 0.99408841133117676  0.10856962203979492  0.00090408505639061332
 0.99537044763565063  0.096108861267566681  0.00088879361283034086
 0.99638938903808594  0.084896326065063477  0.00087266758782789111
 0.99719476699829102  0.074845500290393829  0.00085612933617085218
 0.99782794713973999  0.065868295729160309  0.00083954230649396777
 0.99832338094711304  0.057876955717802048  0.00082320859655737877
 0.99870926141738892  0.050785612314939499  0.00080737058306112885
 0.99900853633880615  0.044511545449495316  0.00079221435589715838
 0.99923986196517944  0.038976084440946579  0.00077787542250007391
 0.99941796064376831  0.034105230122804642  0.00076444499427452683
 0.99955469369888306  0.029830051586031914  0.00075197650585323572
 0.99965941905975342  0.026086838915944099  0.00074049213435500860
 0.99973940849304199  0.022817142307758331  0.00072998908581212163
 0.99980038404464722  0.019967652857303619  0.00072044477565214038
 0.99984675645828247  0.017490014433860779  0.00071182189276441932
 0.99988210201263428  0.015340566635131836  0.00070407253224402666
 0.99990892410278320  0.013480044901371002  0.00069714168785139918
 0.99992924928665161  0.011873266659677029  0.00069096998777240515
 0.99994474649429321  0.010488800704479218  0.00068549613934010267
 0.99995654821395874  0.0092986514791846275  0.00068065867526456714
 0.99996548891067505  0.0082779387012124062  0.00067639740882441401
 0.99997234344482422  0.0074046021327376366  0.00067265430698171258
 0.99997758865356445  0.0066591203212738037  0.00066937436349689960
 0.99998164176940918  0.0060242484323680401  0.00066650618100538850
 0.99998474121093750  0.0054847784340381622  0.00066400191280990839
 0.99998712539672852  0.0050273183733224869  0.00066181784495711327
 0.99998903274536133  0.0046400926075875759  0.00065991404699161649
 0.99999046325683594  0.0043127601966261864  0.00065825460478663445
 0.99999165534973145  0.0040362537838518620  0.00065680721309036016
 0.99999254941940308  0.0038026310503482819  0.00065554311731830239
 0.99999326467514038  0.0036049473565071821  0.00065443699713796377
 0.99999386072158813  0.0034371369984000921  0.00065346644259989262
 0.99999433755874634  0.0032939114607870579  0.00065261183772236109
 0.99999475479125977  0.0031706688459962606  0.00065185612766072154
 0.99999511241912842  0.0030634121503680944  0.00065118446946144104
 0.99999541044235229  0.0029686803463846445  0.00065058394102379680
 0.99999564886093140  0.0028834857512265444  0.00065004348289221525
 0.99999582767486572  0.0028052609413862228  0.00064955319976434112
 0.99999606609344482  0.0027318121865391731  0.00064910465152934194
 0.99999624490737915  0.0026612798683345318  0.00064869027119129896
 0.99999642372131348  0.0025921049527823925  0.00064830324845388532
 0.99999660253524780  0.0025230010505765676  0.00064793747151270509
 0.99999678134918213  0.0024529302027076483  0.00064758717780932784
 0.99999696016311646  0.0023810863494873047  0.00064724695403128862
 0.99999713897705078  0.0023068799637258053  0.00064691161969676614
 0.99999731779098511  0.0022299287375062704  0.00064657611073926091
 0.99999749660491943  0.0021500512957572937  0.00064623524667695165
 0.99999767541885376  0.0020672657992690802  0.00064588419627398252
 0.99999785423278809  0.0019817906431853771  0.00064551789546385407
 0.99999797344207764  0.0018940492300316691  0.00064513139659538865
 0.99999815225601196  0.0018046792829409242  0.00064471986843273044
 0.99999833106994629  0.0017145440215244889  0.00064427853794768453
 0.99999845027923584  0.0016247476451098919  0.00064380298135802150
 0.99999862909317017  0.0015366540756076574  0.00064328906591981649
 0.99999874830245972  0.0014519094256684184  0.00064273300813511014
 0.99999886751174927  0.0013724676100537181  0.00064213183941319585
 0.99999892711639404  0.0013006199151277542  0.00064148317323997617
 0.99999904632568359  0.0012390281772240996  0.00064078561263158917
 0.99999910593032837  0.0011907619191333652  0.00064003880834206939
 0.99999910593032837  0.0011593390954658389  0.00063924380810931325
 0.99999916553497314  0.0011487714946269989  0.00063840294023975730
 0.99999910593032837  0.0011636132840067148  0.00063752027926966548
 0.99999904632568359  0.0012090151431038976  0.00063660176238045096
 0.99999898672103882  0.0012907815398648381  0.00063565524760633707
 0.99999880790710449  0.0014154333621263504  0.00063469103770330548
 0.99999850988388062  0.0015902756713330746  0.00063372158911079168
 0.99999815225601196  0.0018234691815450788  0.00063276215223595500
 0.99999755620956421  0.0021241081412881613  0.00063183059683069587
 0.99999666213989258  0.0025023035705089569  0.00063094781944528222
 0.99999541044235229  0.0029692717362195253  0.00063013791805133224
 0.99999356269836426  0.0035374304279685020  0.00062942830845713615
 0.99999088048934937  0.0042205001227557659  0.00062884972430765629
 0.99998712539672852  0.0050336164422333241  0.00062843691557645798
 0.99998182058334351  0.0059934468008577824  0.00062822829931974411
 0.99997448921203613  0.0071183228865265846  0.00062826659996062517
 0.99996429681777954  0.0084283780306577682  0.00062859896570444107
 0.99995034933090210  0.0099457046017050743  0.00062927725957706571
 0.99993139505386353  0.011694523505866528  0.00063035864150151610
 0.99990594387054443  0.013701369054615498  0.00063190574292093515
 0.99987185001373291  0.015995306894183159  0.00063398771453648806
 0.99982666969299316  0.018608162179589272  0.00063668057555332780
 0.99976700544357300  0.021574791520833969  0.00064006837783381343
 0.99968892335891724  0.024933377280831337  0.00064424442825838923
 0.99958711862564087  0.028725778684020042  0.00064931274391710758
 0.99945521354675293  0.032997913658618927  0.00065539008937776089
 0.99928510189056396  0.037800207734107971  0.00066260824678465724
 0.99906671047210693  0.043188095092773438  0.00067111710086464882
 0.99878758192062378  0.049222581088542938  0.00068108853884041309
 0.99843215942382812  0.055970892310142517  0.00069272116525098681
 0.99798113107681274  0.063507184386253357  0.00070624629734084010
 0.99741065502166748  0.071913301944732666  0.00072193541564047337
 0.99669104814529419  0.081279598176479340  0.00074010976823046803
 0.99578583240509033  0.091705746948719025  0.00076115265255793929
 0.99464976787567139  0.10330147296190262  0.00078552437480539083
 0.99322700500488281  0.11618711799383163  0.00081378303002566099
 0.99144876003265381  0.13049376010894775  0.00084661063738167286
 0.98923063278198242  0.14636255800724030  0.00088484928710386157
 0.98646938800811768  0.16394282877445221  0.00092955044237896800
 0.98304015398025513  0.18338775634765625  0.00098204426467418671
 0.97879362106323242  0.20484629273414612  0.0010440386831760406
 0.97355526685714722  0.22844882309436798  0.0011177592677995563
 0.96712940931320190  0.25428193807601929  0.0012061443412676454
 0.95931196212768555  0.28234517574310303  0.0013130949810147285
 0.94992464780807495  0.31247577071189880  0.0014437269419431686
 0.93889015913009644  0.34421315789222717  0.0016043882351368666
 0.92639887332916260  0.37653928995132446  0.0018015962559729815
 0.91328442096710205  0.40731731057167053  0.0020367761608213186
 0.90198493003845215  0.43176147341728210  0.0022826823405921459
 0.73650097846984863  0.67643606662750244  0.00075507751898840070
 0.76282167434692383  0.64660847187042236  0.00072407844709232450
 0.79169297218322754  0.61091876029968262  0.00071369600482285023
 0.81896108388900757  0.57384860515594482  0.00071987713454291224
 0.84375023841857910  0.53673553466796875  0.00073709152638912201
 0.86592215299606323  0.50017821788787842  0.00076088128844276071
 0.88557255268096924  0.46450036764144897  0.00078796729212626815
 0.90287494659423828  0.42990246415138245  0.00081596028758212924
 0.91802382469177246  0.39652439951896667  0.00084309844532981515
 0.93121278285980225  0.36447498202323914  0.00086806999752297997
 0.94262748956680298  0.33384513854980469  0.00088990986114367843
 0.95244377851486206  0.30471307039260864  0.00090794294374063611
 0.96082776784896851  0.27714467048645020  0.00092175113968551159
 0.96793681383132935  0.25119197368621826  0.00093114870833232999
 0.97391974925994873  0.22689081728458405  0.00093615683726966381
 0.97891640663146973  0.20425905287265778  0.00093697308329865336
 0.98305743932723999  0.18329545855522156  0.00093393685529008508
 0.98646324872970581  0.16397975385189056  0.00092749152099713683
 0.98924374580383301  0.14627374708652496  0.00091814633924514055
 0.99149739742279053  0.13012328743934631  0.00090644130250439048
 0.99331164360046387  0.11546079069375992  0.00089291675249114633
 0.99476265907287598  0.10220818966627121  0.00087808887474238873
 0.99591606855392456  0.090279847383499146  0.00086243153782561421
 0.99682772159576416  0.079585343599319458  0.00084636471001431346
 0.99754440784454346  0.070032075047492981  0.00083024828927591443
 0.99810504913330078  0.061527378857135773  0.00081438029883429408
 0.99854165315628052  0.053980376571416855  0.00079899863339960575
 0.99888026714324951  0.047303318977355957  0.00078428542474284768
 0.99914181232452393  0.041412651538848877  0.00077037257142364979
 0.99934321641921997  0.036229714751243591  0.00075734843267127872
 0.99949777126312256  0.031681168824434280  0.00074526434764266014
 0.99961602687835693  0.027699209749698639  0.00073414115468040109
 0.99970632791519165  0.024221608415246010  0.00072397547774016857
 0.99977517127990723  0.021191593259572983  0.00071474479045718908
 0.99982756376266479  0.018557658419013023  0.00070641253842040896
 0.99986732006072998  0.016273289918899536  0.00069893180625513196
 0.99989753961563110  0.014296655543148518  0.00069224898470565677
 0.99992048740386963  0.012590262107551098  0.00068630633177235723
 0.99993795156478882  0.011120621114969254  0.00068104430101811886
 0.99995118379592896  0.0098578929901123047  0.00067640322959050536
 0.99996125698089600  0.0087755657732486725  0.00067232450237497687
 0.99996894598007202  0.0078501254320144653  0.00066875183256343007
 0.99997484683990479  0.0070607662200927734  0.00066563172731548548
 0.99997937679290771  0.0063891089521348476  0.00066291389521211386
 0.99998283386230469  0.0058189434930682182  0.00066055182833224535
 0.99998557567596436  0.0053359977900981903  0.00065850268583744764
 0.99998766183853149  0.0049277204088866711  0.00065672741038724780
 0.99998927116394043  0.0045830924063920975  0.00065519072813913226
 0.99999058246612549  0.0042924499139189720  0.00065386079950258136
 0.99999159574508667  0.0040473314002156258  0.00065270933555439115
 0.99999243021011353  0.0038403365761041641  0.00065171130700036883
 0.99999308586120605  0.0036650041583925486  0.00065084447851404548
 0.99999362230300903  0.0035157015081495047  0.00065008958335965872
 0.99999403953552246  0.0033875275403261185  0.00064942956669256091
 0.99999439716339111  0.0032762275077402592  0.00064884976018220186
 0.99999475479125977  0.0031781168654561043  0.00064833741635084152
 0.99999499320983887  0.0030900170095264912  0.00064788141753524542
 0.99999529123306274  0.0030091968365013599  0.00064747221767902374
 0.99999547004699707  0.0029333240818232298  0.00064710126025602221
 0.99999570846557617  0.0028604234103113413  0.00064676126930862665
 0.99999588727951050  0.0027888389304280281  0.00064644549274817109
 0.99999612569808960  0.0027172064874321222  0.00064614799339324236
 0.99999630451202393  0.0026444268878549337  0.00064586318330839276
 0.99999648332595825  0.0025696479715406895  0.00064558570738881826
 0.99999666213989258  0.0024922492448240519  0.00064531061798334122
 0.99999690055847168  0.0024118314031511545  0.00064503279281780124
 0.99999707937240601  0.0023282098118215799  0.00064474740065634251
 0.99999725818634033  0.0022414131090044975  0.00064444949384778738
 0.99999749660491943  0.0021516841370612383  0.00064413406653329730
 0.99999767541885376  0.0020594857633113861  0.00064379622926935554
 0.99999785423278809  0.0019655099604278803  0.00064343097619712353
 0.99999803304672241  0.0018706908449530602  0.00064303347608074546
 0.99999821186065674  0.0017762212082743645  0.00064259907230734825
 0.99999839067459106  0.0016835725400596857  0.00064212345751002431
 0.99999850988388062  0.0015945197083055973  0.00064160255715250969
 0.99999862909317017  0.0015111687825992703  0.00064103299519047141
 0.99999874830245972  0.0014359885826706886  0.00064041197765618563
 0.99999886751174927  0.0013718474656343460  0.00063973770011216402
 0.99999892711639404  0.0013220525579527020  0.00063900928944349289
 0.99999898672103882  0.0012903949245810509  0.00063822715310379863
 0.99999898672103882  0.0012811979977414012  0.00063739327015355229
 0.99999892711639404  0.0012993711279705167  0.00063651107484474778
 0.99999886751174927  0.0013504675589501858  0.00063558603869751096
 0.99999874830245972  0.0014407476410269737  0.00063462567050009966
 0.99999856948852539  0.0015772467013448477  0.00063363963272422552
 0.99999821186065674  0.0017678480362519622  0.00063264026539400220
 0.99999773502349854  0.0020213625393807888  0.00063164258608594537
 0.99999701976776123  0.0023476127535104752  0.00063066434813663363
 0.99999600648880005  0.0027575234416872263  0.00062972650630399585
 0.99999445676803589  0.0032632201910018921  0.00062885333318263292
 0.99999231100082397  0.0038781326729804277  0.00062807241920381784
 0.99998915195465088  0.0046171084977686405  0.00062741513829678297
 0.99998468160629272  0.0054965331219136715  0.00062691658968105912
 0.99997848272323608  0.0065344618633389473  0.00062661583069711924
 0.99996978044509888  0.0077507626265287399  0.00062655622605234385
 0.99995779991149902  0.0091672698035836220  0.00062678556423634291
 0.99994140863418579  0.010807955637574196  0.00062735646497458220
 0.99991917610168457  0.012699116952717304  0.00062832649564370513
 0.99988925457000732  0.014869581907987595  0.00062975898617878556
 0.99984925985336304  0.017350941896438599  0.00063172326190397143
 0.99979621171951294  0.020177816972136497  0.00063429563306272030
 0.99972623586654663  0.023388132452964783  0.00063756009330973029
 0.99963456392288208  0.027023471891880035  0.00064160977490246296
 0.99951517581939697  0.031129427254199982  0.00064654805464670062
 0.99936032295227051  0.035756044089794159  0.00065249082399532199
 0.99916064739227295  0.040958289057016373  0.00065956846810877323
 0.99890422821044922  0.046796604990959167  0.00066792895086109638
 0.99857628345489502  0.053337514400482178  0.00067774130729958415
 0.99815857410430908  0.060654319822788239  0.00068920018384233117
 0.99762833118438721  0.068827837705612183  0.00070253130979835987
 0.99695724248886108  0.077947221696376801  0.00071799824945628643
 0.99611037969589233  0.088110804557800293  0.00073591107502579689
 0.99504458904266357  0.099426917731761932  0.00075663707684725523
 0.99370622634887695  0.11201463639736176  0.00078061420936137438
 0.99202936887741089  0.12600424885749817  0.00080836878623813391
 0.98993253707885742  0.14153732359409332  0.00084053818136453629
 0.98731589317321777  0.15876580774784088  0.00087790179532021284
 0.98405718803405762  0.17784990370273590  0.00092142302310094237
 0.98000848293304443  0.19895341992378235  0.00097230909159407020
 0.97499245405197144  0.22223545610904694  0.0010320967994630337
 0.96880131959915161  0.24783611297607422  0.0011027762666344643
 0.96119922399520874  0.27585262060165405  0.0011869681766256690
 0.95193397998809814  0.30630049109458923  0.0012881584698334336
 0.94076716899871826  0.33905032277107239  0.0014109577750787139
 0.92753887176513672  0.37372344732284546  0.0015611874405294657
 0.91230386495590210  0.40951013565063477  0.0017450321465730667
 0.89563894271850586  0.44477748870849609  0.0019642885308712721
 0.87969988584518433  0.47552424669265747  0.0021916306577622890
 0.71272408962249756  0.70144408941268921  0.00075985677540302277
 0.73954105377197266  0.67311108112335205  0.00072585081215947866
 0.76983737945556641  0.63823968172073364  0.00071296223904937506
 0.79900729656219482  0.60132086277008057  0.00071886001387611032
 0.82581651210784912  0.56393843889236450  0.00073704530950635672
 0.84999436140060425  0.52679127454757690  0.00076240213820710778
 0.87157464027404785  0.49026221036911011  0.00079127866774797440
 0.89069569110870361  0.45459929108619690  0.00082107854541391134
 0.90752971172332764  0.41998702287673950  0.00084991985931992531
 0.92225676774978638  0.38657689094543457  0.00087641796562820673
 0.93505543470382690  0.35450038313865662  0.00089956447482109070
 0.94610005617141724  0.32387319207191467  0.00091866153525188565
 0.95556008815765381  0.29479485750198364  0.00093328498769551516
 0.96359997987747192  0.26734662055969238  0.00094325625104829669
 0.97037827968597412  0.24158868193626404  0.00094861432444304228
 0.97604686021804810  0.21755824983119965  0.00094958191039040685
 0.98074930906295776  0.19526866078376770  0.00094652804546058178
 0.98461955785751343  0.17470972239971161  0.00093992706388235092
 0.98778039216995239  0.15584938228130341  0.00093031884171068668
 0.99034291505813599  0.13863629102706909  0.00091827154392376542
 0.99240589141845703  0.12300294637680054  0.00090435042511671782
 0.99405568838119507  0.10886924713850021  0.00088909262558445334
 0.99536687135696411  0.096145950257778168  0.00087298947619274259
 0.99640291929244995  0.084737993776798248  0.00085647468222305179
 0.99721711874008179  0.074547410011291504  0.00083991856081411242
 0.99785381555557251  0.065475843846797943  0.00082362710963934660
 0.99834942817687988  0.057426586747169495  0.00080784375313669443
 0.99873352050781250  0.050306126475334167  0.00079275429015979171
 0.99903011322021484  0.044025346636772156  0.00077849277295172215
 0.99925827980041504  0.038500282913446426  0.00076514831744134426
 0.99943327903747559  0.033652637153863907  0.00075277214637026191
 0.99956715106964111  0.029410002753138542  0.00074138405034318566
 0.99966925382614136  0.025705909356474876  0.00073097890708595514
 0.99974703788757324  0.022479714825749397  0.00072153203655034304
 0.99980616569519043  0.019676398485898972  0.00071300420677289367
 0.99985104799270630  0.017246270552277565  0.00070534582482650876
 0.99988508224487305  0.015144636854529381  0.00069850042928010225
 0.99991089105606079  0.013331446796655655  0.00069240742595866323
 0.99993050098419189  0.011770917102694511  0.00068700453266501427
 0.99994534254074097  0.010431167669594288  0.00068222958361729980
 0.99995666742324829  0.0092838704586029053  0.00067802181001752615
 0.99996531009674072  0.0083039030432701111  0.00067432294599711895
 0.99997186660766602  0.0074690338224172592  0.00067107792710885406
 0.99997693300247192  0.0067596239969134331  0.00066823535598814487
 0.99998080730438232  0.0061583546921610832  0.00066574773518368602
 0.99998384714126587  0.0056499764323234558  0.00066357169998809695
 0.99998617172241211  0.0052210805006325245  0.00066166790202260017
 0.99998795986175537  0.0048598940484225750  0.00066000095102936029
 0.99998939037322998  0.0045560952275991440  0.00065853935666382313
 0.99999052286148071  0.0043006460182368755  0.00065725500462576747
 0.99999141693115234  0.0040856441482901573  0.00065612333128228784
 0.99999219179153442  0.0039041908457875252  0.00065512268338352442
 0.99999272823333740  0.0037502734921872616  0.00065423425985500216
 0.99999326467514038  0.0036186624784022570  0.00065344164613634348
 0.99999362230300903  0.0035048178397119045  0.00065273075597360730
 0.99999397993087769  0.0034048114903271198  0.00065208930755034089
 0.99999427795410156  0.0033152552787214518  0.00065150670707225800
 0.99999457597732544  0.0032332395203411579  0.00065097369952127337
 0.99999481439590454  0.0031562824733555317  0.00065048219403252006
 0.99999505281448364  0.0030822823755443096  0.00065002514747902751
 0.99999523162841797  0.0030094811227172613  0.00064959604060277343
 0.99999547004699707  0.0029364316724240780  0.00064918916905298829
 0.99999570846557617  0.0028619712684303522  0.00064879894489422441
 0.99999588727951050  0.0027852018829435110  0.00064842030405998230
 0.99999612569808960  0.0027054734528064728  0.00064804829889908433
 0.99999636411666870  0.0026223734021186829  0.00064767803996801376
 0.99999660253524780  0.0025357196573168039  0.00064730481244623661
 0.99999678134918213  0.0024455594830214977  0.00064692378509789705
 0.99999701976776123  0.0023521708790212870  0.00064653030131012201
 0.99999725818634033  0.0022560688666999340  0.00064611976267769933
 0.99999743700027466  0.0021580152679234743  0.00064568768721073866
 0.99999767541885376  0.0020590343046933413  0.00064522982574999332
 0.99999785423278809  0.0019604291301220655  0.00064474216196686029
 0.99999803304672241  0.0018638056935742497  0.00064422114519402385
 0.99999821186065674  0.0017710983520373702  0.00064366374863311648
 0.99999839067459106  0.0016846008365973830  0.00064306758577004075
 0.99999850988388062  0.0016070015262812376  0.00064243120141327381
 0.99999862909317017  0.0015414230292662978  0.00064175401348620653
 0.99999868869781494  0.0014914659550413489  0.00064103672048076987
 0.99999874830245972  0.0014612579252570868  0.00064028118504211307
 0.99999874830245972  0.0014555075904354453  0.00063949095783755183
 0.99999868869781494  0.0014795633032917976  0.00063867116114124656
 0.99999862909317017  0.0015394770307466388  0.00063782877987250686
 0.99999845027923584  0.0016420742031186819  0.00063697295263409615
 0.99999821186065674  0.0017950290348380804  0.00063611491350457072
 0.99999779462814331  0.0020069454330950975  0.00063526828307658434
 0.99999719858169556  0.0022874446585774422  0.00063444924307987094
 0.99999630451202393  0.0026472595054656267  0.00063367682741954923
 0.99999499320983887  0.0030983353499323130  0.00063297268934547901
 0.99999314546585083  0.0036539384163916111  0.00063236185815185308
 0.99999040365219116  0.0043287738226354122  0.00063187244813889265
 0.99998658895492554  0.0051391101442277431  0.00063153606606647372
 0.99998116493225098  0.0061029163189232349  0.00063138804398477077
 0.99997359514236450  0.0072400076314806938  0.00063146749744191766
 0.99996304512023926  0.0085722077637910843  0.00063181784935295582
 0.99994856119155884  0.010123522020876408  0.00063248682999983430
 0.99992877244949341  0.011920326389372349  0.00063352711731567979
 0.99990189075469971  0.013991583138704300  0.00063499651150777936
 0.99986582994461060  0.016369070857763290  0.00063695851713418961
 0.99981760978698730  0.019087646156549454  0.00063948292518034577
 0.99975365400314331  0.022185536101460457  0.00064264656975865364
 0.99966937303543091  0.025704661384224892  0.00064653414301574230
 0.99955892562866211  0.029691012576222420  0.00065123930107802153
 0.99941498041152954  0.034195058047771454  0.00065686611924320459
 0.99922829866409302  0.039272222667932510  0.00066353066358715296
 0.99898749589920044  0.044983424246311188  0.00067136308643966913
 0.99867814779281616  0.051395647227764130  0.00068051036214455962
 0.99828231334686279  0.058582648634910583  0.00069113937206566334
 0.99777781963348389  0.066625669598579407  0.00070344092091545463
 0.99713689088821411  0.075614236295223236  0.00071763462619856000
 0.99632525444030762  0.085647039115428925  0.00073397485539317131
 0.99530035257339478  0.096832759678363800  0.00075275823473930359
 0.99400949478149414  0.10929093509912491  0.00077433238038793206
 0.99238741397857666  0.12315259128808975  0.00079910730710253119
 0.99035358428955078  0.13856066763401031  0.00082756916526705027
 0.98780876398086548  0.15566979348659515  0.00086029840167611837
 0.98463100194931030  0.17464515566825867  0.00089799286797642708
 0.98067134618759155  0.19565990567207336  0.00094150064978748560
 0.97574901580810547  0.21888996660709381  0.00099186552688479424
 0.96964740753173828  0.24450527131557465  0.0010503951925784349
 0.96211117506027222  0.27265521883964539  0.0011187633499503136
 0.95284795761108398  0.30344575643539429  0.0011991620995104313
 0.94153839349746704  0.33690327405929565  0.0012945170747116208
 0.92786324024200439  0.37291797995567322  0.0014087466988712549
 0.91156733036041260  0.41114789247512817  0.0015468981582671404
 0.89261233806610107  0.45082172751426697  0.0017144610174000263
 0.87163090705871582  0.49015903472900391  0.0019129308639094234
 0.85195130109786987  0.52361673116683960  0.0021189167164266109
 0.68944275379180908  0.72433978319168091  0.00077906431397423148
 0.71688288450241089  0.69719320535659790  0.00074409414082765579
 0.74834209680557251  0.66331261396408081  0.00073052162770181894
 0.77913117408752441  0.62686049938201904  0.00073674321174621582
 0.80779111385345459  0.58946835994720459  0.00075622351141646504
 0.83388894796371460  0.55193173885345459  0.00078344740904867649
 0.85736531019210815  0.51470768451690674  0.00081443379167467356
 0.87830251455307007  0.47810453176498413  0.00084635970415547490
 0.89683741331100464  0.44235941767692566  0.00087719451403245330
 0.91312777996063232  0.40767243504524231  0.00090545957209542394
 0.92733943462371826  0.37422007322311401  0.00093009241390973330
 0.93964159488677979  0.34215903282165527  0.00095037207938730717
 0.95020455121994019  0.31162548065185547  0.00096587638836354017
 0.95919841527938843  0.28273209929466248  0.00097644864581525326
 0.96679133176803589  0.25556513667106628  0.00098216370679438114
 0.97314703464508057  0.23018227517604828  0.00098328955937176943
 0.97842246294021606  0.20661203563213348  0.00098024355247616768
 0.98276543617248535  0.18485455214977264  0.00097354786703363061
 0.98631250858306885  0.16488383710384369  0.00096378568559885025
 0.98918783664703369  0.14665110409259796  0.00095156172756105661
 0.99150192737579346  0.13008858263492584  0.00093746988568454981
 0.99335187673568726  0.11511379480361938  0.00092206796398386359
 0.99482148885726929  0.10163360834121704  0.00090586015721783042
 0.99598211050033569  0.089548036456108093  0.00088928692275658250
 0.99689370393753052  0.078753598034381866  0.00087272014934569597
 0.99760615825653076  0.069146148860454559  0.00085646338993683457
 0.99816036224365234  0.060623131692409515  0.00084075547056272626
 0.99858963489532471  0.053085327148437500  0.00082577607827261090
 0.99892085790634155  0.046438127756118774  0.00081165262963622808
 0.99917548894882202  0.040592409670352936  0.00079846795415505767
 0.99937063455581665  0.035465065389871597  0.00078626733738929033
 0.99951970577239990  0.030979240313172340  0.00077506591333076358
 0.99963337182998657  0.027064396068453789  0.00076485465979203582
 0.99971985816955566  0.023656187579035759  0.00075560616096481681
 0.99978554248809814  0.020696239545941353  0.00074727932224050164
 0.99983531236648560  0.018131837248802185  0.00073982356116175652
 0.99987304210662842  0.015915565192699432  0.00073318200884386897
 0.99990165233612061  0.014004935510456562  0.00072729418752714992
 0.99992334842681885  0.012361989356577396  0.00072209822246804833
 0.99993973970413208  0.010952907614409924  0.00071753247175365686
 0.99995225667953491  0.0097476346418261528  0.00071353663224726915
 0.99996173381805420  0.0087195187807083130  0.00071005290374159813
 0.99996900558471680  0.0078449724242091179  0.00070702651282772422
 0.99997454881668091  0.0071031586267054081  0.00070440612034872174
 0.99997878074645996  0.0064757028594613075  0.00070214411243796349
 0.99998205900192261  0.0059464238584041595  0.00070019665872678161
 0.99998462200164795  0.0055010956712067127  0.00069852388696745038
 0.99998658895492554  0.0051272283308207989  0.00069708970841020346
 0.99998819828033447  0.0048138713464140892  0.00069586164318025112
 0.99998939037322998  0.0045514386147260666  0.00069481082027778029
 0.99999040365219116  0.0043315491639077663  0.00069391157012432814
 0.99999117851257324  0.0041468888521194458  0.00069314130814746022