# OOMMF: rectangular mesh v1.0
# Segment count: 1
# Begin: Segment
# Begin: Header
# Desc: time :  0
# Desc: By :  0
# Desc: Bx :  0
# Desc: Bz :  0
# Desc: msat :  490000
# Desc: id :  0
# Desc: iteration :  0
# Desc: alpha :  0.01
# Desc: torque :  0
# Desc: aexch :  9e-12
# Title: mumax data
# meshtype: rectangular
# meshunit: m
# xbase: 0
# ybase: 0
# zbase: 0
# xstepsize: 2.34375e-09
# ystepsize: 2.34375e-09
# zstepsize: 5e-08
# xmin: 0
# ymin: 0
# zmin: 0
# xmax: 3e-07
# ymax: 3e-07
# zmax: 5e-08
# xnodes: 128
# ynodes: 128
# znodes: 1
# ValueRangeMinMag: 1e-08
# ValueRangeMaxMag: 1
# valueunit: A/m
# valuemultiplier: 490000
# End: Header
# Begin: Data Text
1 0 0 	1 0 0 	1 0 0 	1 0 0 	1 0 0 	1 0 0 	1 0 0 	1 0 0 	1 0 0 	1 0 0 	1 0 0 	1 0 0 	1 0 0 	1 0 0 	1 0 0 	1 0 0 	1 0 0 	1 0 0 	1 0 0 	1 0 0 	1 0 0 	1 0 0 	1 0 0 	1 0 0 	1 0 0 	1 0 0 	1 0 0 	1 0 0 	1 0 0 	1 0 0 	1 0 0 	1 0 0 	1 0 0 	1 0 0 	1 0 0 	1 0 0 	1 0 0 	1 0 0 	1 0 0 	1 0 0 	1 0 0 	1 0 0 	1 0 0 	1 0 0 	1 0 0 	1 0 0 	1 0 0 	1 0 0 	1 0 0 	1 0 0 	1 0 0 	1 0 0 	1 0 0 	1 0 0 	1 0 0 	1 0 0 	1 0 0 	1 0 0 	1 0 0 	1 0 0 	1 0 0 	1 0 0 	1 0 0 	1 0 0 	1 0 0 	1 0 0 	1 0 0 	1 0 0 	1 0 0 	1 0 0 	1 0 0 	1 0 0 	1 0 0 	1 0 0 	1 0 0 	1 0 0 	1 0 0 	1 0 0 	1 0 0 	1 0 0 	1 0 0 	1 0 0 	1 0 0 	1 0 0 	1 0 0 	1 0 0 	1 0 0 	1 0 0 	1 0 0 	1 0 0 	1 0 0 	1 0 0 	1 0 0 	1 0 0 	1 0 0 	1 0 0 	1 0 0 	1 0 0 	1 0 0 	1 0 0 	1 0 0 	1 0 0 	1 0 0 	1 0 0 	1 0 0 	1 0 0 	1 0 0 	1 0 0 	1 0 0 	1 0 0 	1 0 0 	1 0 0 	1 0 0 	1 0 0 	1 0 0 	1 0 0 	1 0 0 	1 0 0 	1 0 0 	1 0 0 	1 0 0 	1 0 0 	1 0 0 	1 0 0 	1 0 0 	1 0 0 	1 0 0 	1 0 0 	
1 0 0 	1 0 0 	1 0 0 	1 0 0 	1 0 0 	1 0 0 	1 0 0 	1 0 0 	1 0 0 	1 0 0 	1 0 0 	1 0 0 	1 0 0 	1 0 0 	1 0 0 	1 0 0 	1 0 0 	1 0 0 	1 0 0 	1 0 0 	1 0 0 	1 0 0 	1 0 0 	1 0 0 	1 0 0 	1 0 0 	1 0 0 	1 0 0 	1 0 0 	1 0 0 	1 0 0 	1 0 0 	1 0 0 	1 0 0 	1 0 0 	1 0 0 	1 0 0 	1 0 0 	1 0 0 	1 0 0 	1 0 0 	1 0 0 	1 0 0 	1 0 0 	1 0 0 	1 0 0 	1 0 0 	1 0 0 	1 0 0 	1 0 0 	1 0 0 	1 0 0 	1 0 0 	1 0 0 	1 0 0 	1 0 0 	1 0 0 	1 0 0 	1 0 0 	1 0 0 	1 0 0 	1 0 0 	1 0 0 	1 0 0 	1 0 0 	1 0 0 	1 0 0 	1 0 0 	1 0 0 	1 0 0 	1 0 0 	1 0 0 	1 0 0 	1 0 0 	1 0 0 	1 0 0 	1 0 0 	1 0 0 	1 0 0 	1 0 0 	1 0 0 	1 0 0 	1 0 0 	1 0 0 	1 0 0 	1 0 0 	1 0 0 	1 0 0 	1 0 0 	1 0 0 	1 0 0 	1 0 0 	1 0 0 	1 0 0 	1 0 0 	1 0 0 	1 0 0 	1 0 0 	1 0 0 	1 0 0 	1 0 0 	1 0 0 	1 0 0 	1 0 0 	1 0 0 	1 0 0 	1 0 0 	1 0 0 	1 0 0 	1 0 0 	1 0 0 	1 0 0 	1 0 0 	1 0 0 	1 0 0 	1 0 0 	1 0 0 	1 0 0 	1 0 0 	1 0 0 	1 0 0 	1 0 0 	1 0 0 	1 0 0 	1 0 0 	1 0 0 	1 0 0 	1 0 0 	
1 0 0 	1 0 0 	1 0 0 	1 0 0 	1 0 0 	1 0 0 	1 0 0 	1 0 0 	1 0 0 	1 0 0 	1 0 0 	1 0 0 	1 0 0 	1 0 0 	1 0 0 	1 0 0 	1 0 0 	1 0 0 	1 0 0 	1 0 0 	1 0 0 	1 0 0 	1 0 0 	1 0 0 	1 0 0 	1 0 0 	1 0 0 	1 0 0 	1 0 0 	1 0 0 	1 0 0 	1 0 0 	1 0 0 	1 0 0 	1 0 0 	1 0 0 	1 0 0 	1 0 0 	1 0 0 	1 0 0 	1 0 0 	1 0 0 	1 0 0 	1 0 0 	1 0 0 	1 0 0 	1 0 0 	1 0 0 	1 0 0 	1 0 0 	1 0 0 	1 0 0 	1 0 0 	1 0 0 	1 0 0 	1 0 0 	1 0 0 	1 0 0 	1 0 0 	1 0 0 	1 0 0 	1 0 0 	1 0 0 	1 0 0 	1 0 0 	1 0 0 	1 0 0 	1 0 0 	1 0 0 	1 0 0 	1 0 0 	1 0 0 	1 0 0 	1 0 0 	1 0 0 	1 0 0 	1 0 0 	1 0 0 	1 0 0 	1 0 0 	1 0 0 	1 0 0 	1 0 0 	1 0 0 	1 0 0 	1 0 0 	1 0 0 	1 0 0 	1 0 0 	1 0 0 	1 0 0 	1 0 0 	1 0 0 	1 0 0 	1 0 0 	1 0 0 	1 0 0 	1 0 0 	1 0 0 	1 0 0 	1 0 0 	1 0 0 	1 0 0 	1 0 0 	1 0 0 	1 0 0 	1 0 0 	1 0 0 	1 0 0 	1 0 0 	1 0 0 	1 0 0 	1 0 0 	1 0 0 	1 0 0 	1 0 0 	1 0 0 	1 0 0 	1 0 0 	1 0 0 	1 0 0 	1 0 0 	1 0 0 	1 0 0 	1 0 0 	1 0 0 	1 0 0 	1 0 0 	
1 0 0 	1 0 0 	1 0 0 	1 0 0 	1 0 0 	1 0 0 	1 0 0 	1 0 0 	1 0 0 	1 0 0 	1 0 0 	1 0 0 	1 0 0 	1 0 0 	1 0 0 	1 0 0 	1 0 0 	1 0 0 	1 0 0 	1 0 0 	1 0 0 	1 0 0 	1 0 0 	1 0 0 	1 0 0 	1 0 0 	1 0 0 	1 0 0 	1 0 0 	1 0 0 	1 0 0 	1 0 0 	1 0 0 	1 0 0 	1 0 0 	1 0 0 	1 0 0 	1 0 0 	1 0 0 	1 0 0 	1 0 0 	1 0 0 	1 0 0 	1 0 0 	1 0 0 	1 0 0 	1 0 0 	1 0 0 	1 0 0 	1 0 0 	1 0 0 	1 0 0 	1 0 0 	1 0 0 	1 0 0 	1 0 0 	1 0 0 	1 0 0 	1 0 0 	1 0 0 	1 0 0 	1 0 0 	1 0 0 	1 0 0 	1 0 0 	1 0 0 	1 0 0 	1 0 0 	1 0 0 	1 0 0 	1 0 0 	1 0 0 	1 0 0 	1 0 0 	1 0 0 	1 0 0 	1 0 0 	1 0 0 	1 0 0 	1 0 0 	1 0 0 	1 0 0 	1 0 0 	1 0 0 	1 0 0 	1 0 0 	1 0 0 	1 0 0 	1 0 0 	1 0 0 	1 0 0 	1 0 0 	1 0 0 	1 0 0 	1 0 0 	1 0 0 	1 0 0 	1 0 0 	1 0 0 	1 0 0 	1 0 0 	1 0 0 	1 0 0 	1 0 0 	1 0 0 	1 0 0 	1 0 0 	1 0 0 	1 0 0 	1 0 0 	1 0 0 	1 0 0 	1 0 0 	1 0 0 	1 0 0 	1 0 0 	1 0 0 	1 0 0 	1 0 0 	1 0 0 	1 0 0 	1 0 0 	1 0 0 	1 0 0 	1 0 0 	1 0 0 	1 0 0 	1 0 0 	
1 0 0 	1 0 0 	1 0 0 	1 0 0 	1 0 0 	1 0 0 	1 0 0 	1 0 0 	1 0 0 	1 0 0 	1 0 0 	1 0 0 	1 0 0 	1 0 0 	1 0 0 	1 0 0 	1 0 0 	1 0 0 	1 0 0 	1 0 0 	1 0 0 	1 0 0 	1 0 0 	1 0 0 	1 0 0 	1 0 0 	1 0 0 	1 0 0 	1 0 0 	1 0 0 	1 0 0 	1 0 0 	1 0 0 	1 0 0 	1 0 0 	1 0 0 	1 0 0 	1 0 0 	1 0 0 	1 0 0 	1 0 0 	1 0 0 	1 0 0 	1 0 0 	1 0 0 	1 0 0 	1 0 0 	1 0 0 	1 0 0 	1 0 0 	1 0 0 	1 0 0 	1 0 0 	1 0 0 	1 0 0 	1 0 0 	1 0 0 	1 0 0 	1 0 0 	1 0 0 	1 0 0 	1 0 0 	1 0 0 	1 0 0 	1 0 0 	1 0 0 	1 0 0 	1 0 0 	1 0 0 	1 0 0 	1 0 0 	1 0 0 	1 0 0 	1 0 0 	1 0 0 	1 0 0 	1 0 0 	1 0 0 	1 0 0 	1 0 0 	1 0 0 	1 0 0 	1 0 0 	1 0 0 	1 0 0 	1 0 0 	1 0 0 	1 0 0 	1 0 0 	1 0 0 	1 0 0 	1 0 0 	1 0 0 	1 0 0 	1 0 0 	1 0 0 	1 0 0 	1 0 0 	1 0 0 	1 0 0 	1 0 0 	1 0 0 	1 0 0 	1 0 0 	1 0 0 	1 0 0 	1 0 0 	1 0 0 	1 0 0 	1 0 0 	1 0 0 	1 0 0 	1 0 0 	1 0 0 	1 0 0 	1 0 0 	1 0 0 	1 0 0 	1 0 0 	1 0 0 	1 0 0 	1 0 0 	1 0 0 	1 0 0 	1 0 0 	1 0 0 	1 0 0 	1 0 0 	
1 0 0 	1 0 0 	1 0 0 	1 0 0 	1 0 0 	1 0 0 	1 0 0 	1 0 0 	1 0 0 	1 0 0 	1 0 0 	1 0 0 	1 0 0 	1 0 0 	1 0 0 	1 0 0 	1 0 0 	1 0 0 	1 0 0 	1 0 0 	1 0 0 	1 0 0 	1 0 0 	1 0 0 	1 0 0 	1 0 0 	1 0 0 	1 0 0 	1 0 0 	1 0 0 	1 0 0 	1 0 0 	1 0 0 	1 0 0 	1 0 0 	1 0 0 	1 0 0 	1 0 0 	1 0 0 	1 0 0 	1 0 0 	1 0 0 	1 0 0 	1 0 0 	1 0 0 	1 0 0 	1 0 0 	1 0 0 	1 0 0 	1 0 0 	1 0 0 	1 0 0 	1 0 0 	1 0 0 	1 0 0 	1 0 0 	1 0 0 	1 0 0 	1 0 0 	1 0 0 	1 0 0 	1 0 0 	1 0 0 	1 0 0 	1 0 0 	1 0 0 	1 0 0 	1 0 0 	1 0 0 	1 0 0 	1 0 0 	1 0 0 	1 0 0 	1 0 0 	1 0 0 	1 0 0 	1 0 0 	1 0 0 	1 0 0 	1 0 0 	1 0 0 	1 0 0 	1 0 0 	1 0 0 	1 0 0 	1 0 0 	1 0 0 	1 0 0 	1 0 0 	1 0 0 	1 0 0 	1 0 0 	1 0 0 	1 0 0 	1 0 0 	1 0 0 	1 0 0 	1 0 0 	1 0 0 	1 0 0 	1 0 0 	1 0 0 	1 0 0 	1 0 0 	1 0 0 	1 0 0 	1 0 0 	1 0 0 	1 0 0 	1 0 0 	1 0 0 	1 0 0 	1 0 0 	1 0 0 	1 0 0 	1 0 0 	1 0 0 	1 0 0 	1 0 0 	1 0 0 	1 0 0 	1 0 0 	1 0 0 	1 0 0 	1 0 0 	1 0 0 	1 0 0 	1 0 0 	
1 0 0 	1 0 0 	1 0 0 	1 0 0 	1 0 0 	1 0 0 	1 0 0 	1 0 0 	1 0 0 	1 0 0 	1 0 0 	1 0 0 	1 0 0 	1 0 0 	1 0 0 	1 0 0 	1 0 0 	1 0 0 	1 0 0 	1 0 0 	1 0 0 	1 0 0 	1 0 0 	1 0 0 	1 0 0 	1 0 0 	1 0 0 	1 0 0 	1 0 0 	1 0 0 	1 0 0 	1 0 0 	1 0 0 	1 0 0 	1 0 0 	1 0 0 	1 0 0 	1 0 0 	1 0 0 	1 0 0 	1 0 0 	1 0 0 	1 0 0 	1 0 0 	1 0 0 	1 0 0 	1 0 0 	1 0 0 	1 0 0 	1 0 0 	1 0 0 	1 0 0 	1 0 0 	1 0 0 	1 0 0 	1 0 0 	1 0 0 	1 0 0 	1 0 0 	1 0 0 	1 0 0 	1 0 0 	1 0 0 	1 0 0 	1 0 0 	1 0 0 	1 0 0 	1 0 0 	1 0 0 	1 0 0 	1 0 0 	1 0 0 	1 0 0 	1 0 0 	1 0 0 	1 0 0 	1 0 0 	1 0 0 	1 0 0 	1 0 0 	1 0 0 	1 0 0 	1 0 0 	1 0 0 	1 0 0 	1 0 0 	1 0 0 	1 0 0 	1 0 0 	1 0 0 	1 0 0 	1 0 0 	1 0 0 	1 0 0 	1 0 0 	1 0 0 	1 0 0 	1 0 0 	1 0 0 	1 0 0 	1 0 0 	1 0 0 	1 0 0 	1 0 0 	1 0 0 	1 0 0 	1 0 0 	1 0 0 	1 0 0 	1 0 0 	1 0 0 	1 0 0 	1 0 0 	1 0 0 	1 0 0 	1 0 0 	1 0 0 	1 0 0 	1 0 0 	1 0 0 	1 0 0 	1 0 0 	1 0 0 	1 0 0 	1 0 0 	1 0 0 	1 0 0 	1 0 0 	
1 0 0 	1 0 0 	1 0 0 	1 0 0 	1 0 0 	1 0 0 	1 0 0 	1 0 0 	1 0 0 	1 0 0 	1 0 0 	1 0 0 	1 0 0 	1 0 0 	1 0 0 	1 0 0 	1 0 0 	1 0 0 	1 0 0 	1 0 0 	1 0 0 	1 0 0 	1 0 0 	1 0 0 	1 0 0 	1 0 0 	1 0 0 	1 0 0 	1 0 0 	1 0 0 	1 0 0 	1 0 0 	1 0 0 	1 0 0 	1 0 0 	1 0 0 	1 0 0 	1 0 0 	1 0 0 	1 0 0 	1 0 0 	1 0 0 	1 0 0 	1 0 0 	1 0 0 	1 0 0 	1 0 0 	1 0 0 	1 0 0 	1 0 0 	1 0 0 	1 0 0 	1 0 0 	1 0 0 	1 0 0 	1 0 0 	1 0 0 	1 0 0 	1 0 0 	1 0 0 	1 0 0 	1 0 0 	1 0 0 	1 0 0 	1 0 0 	1 0 0 	1 0 0 	1 0 0 	1 0 0 	1 0 0 	1 0 0 	1 0 0 	1 0 0 	1 0 0 	1 0 0 	1 0 0 	1 0 0 	1 0 0 	1 0 0 	1 0 0 	1 0 0 	1 0 0 	1 0 0 	1 0 0 	1 0 0 	1 0 0 	1 0 0 	1 0 0 	1 0 0 	1 0 0 	1 0 0 	1 0 0 	1 0 0 	1 0 0 	1 0 0 	1 0 0 	1 0 0 	1 0 0 	1 0 0 	1 0 0 	1 0 0 	1 0 0 	1 0 0 	1 0 0 	1 0 0 	1 0 0 	1 0 0 	1 0 0 	1 0 0 	1 0 0 	1 0 0 	1 0 0 	1 0 0 	1 0 0 	1 0 0 	1 0 0 	1 0 0 	1 0 0 	1 0 0 	1 0 0 	1 0 0 	1 0 0 	1 0 0 	1 0 0 	1 0 0 	1 0 0 	1 0 0 	1 0 0 	
1 0 0 	1 0 0 	1 0 0 	1 0 0 	1 0 0 	1 0 0 	1 0 0 	1 0 0 	1 0 0 	1 0 0 	1 0 0 	1 0 0 	1 0 0 	1 0 0 	1 0 0 	1 0 0 	1 0 0 	1 0 0 	1 0 0 	1 0 0 	1 0 0 	1 0 0 	1 0 0 	1 0 0 	1 0 0 	1 0 0 	1 0 0 	1 0 0 	1 0 0 	1 0 0 	1 0 0 	1 0 0 	1 0 0 	1 0 0 	1 0 0 	1 0 0 	1 0 0 	1 0 0 	1 0 0 	1 0 0 	1 0 0 	1 0 0 	1 0 0 	1 0 0 	1 0 0 	1 0 0 	1 0 0 	1 0 0 	1 0 0 	1 0 0 	1 0 0 	1 0 0 	1 0 0 	1 0 0 	1 0 0 	1 0 0 	1 0 0 	1 0 0 	1 0 0 	1 0 0 	1 0 0 	1 0 0 	1 0 0 	1 0 0 	1 0 0 	1 0 0 	1 0 0 	1 0 0 	1 0 0 	1 0 0 	1 0 0 	1 0 0 	1 0 0 	1 0 0 	1 0 0 	1 0 0 	1 0 0 	1 0 0 	1 0 0 	1 0 0 	1 0 0 	1 0 0 	1 0 0 	1 0 0 	1 0 0 	1 0 0 	1 0 0 	1 0 0 	1 0 0 	1 0 0 	1 0 0 	1 0 0 	1 0 0 	1 0 0 	1 0 0 	1 0 0 	1 0 0 	1 0 0 	1 0 0 	1 0 0 	1 0 0 	1 0 0 	1 0 0 	1 0 0 	1 0 0 	1 0 0 	1 0 0 	1 0 0 	1 0 0 	1 0 0 	1 0 0 	1 0 0 	1 0 0 	1 0 0 	1 0 0 	1 0 0 	1 0 0 	1 0 0 	1 0 0 	1 0 0 	1 0 0 	1 0 0 	1 0 0 	1 0 0 	1 0 0 	1 0 0 	1 0 0 	1 0 0 	
1 0 0 	1 0 0 	1 0 0 	1 0 0 	1 0 0 	1 0 0 	1 0 0 	1 0 0 	1 0 0 	1 0 0 	1 0 0 	1 0 0 	1 0 0 	1 0 0 	1 0 0 	1 0 0 	1 0 0 	1 0 0 	1 0 0 	1 0 0 	1 0 0 	1 0 0 	1 0 0 	1 0 0 	1 0 0 	1 0 0 	1 0 0 	1 0 0 	1 0 0 	1 0 0 	1 0 0 	1 0 0 	1 0 0 	1 0 0 	1 0 0 	1 0 0 	1 0 0 	1 0 0 	1 0 0 	1 0 0 	1 0 0 	1 0 0 	1 0 0 	1 0 0 	1 0 0 	1 0 0 	1 0 0 	1 0 0 	1 0 0 	1 0 0 	1 0 0 	1 0 0 	1 0 0 	1 0 0 	1 0 0 	1 0 0 	1 0 0 	1 0 0 	1 0 0 	1 0 0 	1 0 0 	1 0 0 	1 0 0 	1 0 0 	1 0 0 	1 0 0 	1 0 0 	1 0 0 	1 0 0 	1 0 0 	1 0 0 	1 0 0 	1 0 0 	1 0 0 	1 0 0 	1 0 0 	1 0 0 	1 0 0 	1 0 0 	1 0 0 	1 0 0 	1 0 0 	1 0 0 	1 0 0 	1 0 0 	1 0 0 	1 0 0 	1 0 0 	1 0 0 	1 0 0 	1 0 0 	1 0 0 	1 0 0 	1 0 0 	1 0 0 	1 0 0 	1 0 0 	1 0 0 	1 0 0 	1 0 0 	1 0 0 	1 0 0 	1 0 0 	1 0 0 	1 0 0 	1 0 0 	1 0 0 	1 0 0 	1 0 0 	1 0 0 	1 0 0 	1 0 0 	1 0 0 	1 0 0 	1 0 0 	1 0 0 	1 0 0 	1 0 0 	1 0 0 	1 0 0 	1 0 0 	1 0 0 	1 0 0 	1 0 0 	1 0 0 	1 0 0 	1 0 0 	1 0 0 	
1 0 0 	1 0 0 	1 0 0 	1 0 0 	1 0 0 	1 0 0 	1 0 0 	1 0 0 	1 0 0 	1 0 0 	1 0 0 	1 0 0 	1 0 0 	1 0 0 	1 0 0 	1 0 0 	1 0 0 	1 0 0 	1 0 0 	1 0 0 	1 0 0 	1 0 0 	1 0 0 	1 0 0 	1 0 0 	1 0 0 	1 0 0 	1 0 0 	1 0 0 	1 0 0 	1 0 0 	1 0 0 	1 0 0 	1 0 0 	1 0 0 	1 0 0 	1 0 0 	1 0 0 	1 0 0 	1 0 0 	1 0 0 	1 0 0 	1 0 0 	1 0 0 	1 0 0 	1 0 0 	1 0 0 	1 0 0 	1 0 0 	1 0 0 	1 0 0 	1 0 0 	1 0 0 	1 0 0 	1 0 0 	1 0 0 	1 0 0 	1 0 0 	1 0 0 	1 0 0 	1 0 0 	1 0 0 	1 0 0 	1 0 0 	1 0 0 	1 0 0 	1 0 0 	1 0 0 	1 0 0 	1 0 0 	1 0 0 	1 0 0 	1 0 0 	1 0 0 	1 0 0 	1 0 0 	1 0 0 	1 0 0 	1 0 0 	1 0 0 	1 0 0 	1 0 0 	1 0 0 	1 0 0 	1 0 0 	1 0 0 	1 0 0 	1 0 0 	1 0 0 	1 0 0 	1 0 0 	1 0 0 	1 0 0 	1 0 0 	1 0 0 	1 0 0 	1 0 0 	1 0 0 	1 0 0 	1 0 0 	1 0 0 	1 0 0 	1 0 0 	1 0 0 	1 0 0 	1 0 0 	1 0 0 	1 0 0 	1 0 0 	1 0 0 	1 0 0 	1 0 0 	1 0 0 	1 0 0 	1 0 0 	1 0 0 	1 0 0 	1 0 0 	1 0 0 	1 0 0 	1 0 0 	1 0 0 	1 0 0 	1 0 0 	1 0 0 	1 0 0 	1 0 0 	1 0 0 	
1 0 0 	1 0 0 	1 0 0 	1 0 0 	1 0 0 	1 0 0 	1 0 0 	1 0 0 	1 0 0 	1 0 0 	1 0 0 	1 0 0 	1 0 0 	1 0 0 	1 0 0 	1 0 0 	1 0 0 	1 0 0 	1 0 0 	1 0 0 	1 0 0 	1 0 0 	1 0 0 	1 0 0 	1 0 0 	1 0 0 	1 0 0 	1 0 0 	1 0 0 	1 0 0 	1 0 0 	1 0 0 	1 0 0 	1 0 0 	1 0 0 	1 0 0 	1 0 0 	1 0 0 	1 0 0 	1 0 0 	1 0 0 	1 0 0 	1 0 0 	1 0 0 	1 0 0 	1 0 0 	1 0 0 	1 0 0 	1 0 0 	1 0 0 	1 0 0 	1 0 0 	1 0 0 	1 0 0 	1 0 0 	1 0 0 	1 0 0 	1 0 0 	1 0 0 	1 0 0 	1 0 0 	1 0 0 	1 0 0 	1 0 0 	1 0 0 	1 0 0 	1 0 0 	1 0 0 	1 0 0 	1 0 0 	1 0 0 	1 0 0 	1 0 0 	1 0 0 	1 0 0 	1 0 0 	1 0 0 	1 0 0 	1 0 0 	1 0 0 	1 0 0 	1 0 0 	1 0 0 	1 0 0 	1 0 0 	1 0 0 	1 0 0 	1 0 0 	1 0 0 	1 0 0 	1 0 0 	1 0 0 	1 0 0 	1 0 0 	1 0 0 	1 0 0 	1 0 0 	1 0 0 	1 0 0 	1 0 0 	1 0 0 	1 0 0 	1 0 0 	1 0 0 	1 0 0 	1 0 0 	1 0 0 	1 0 0 	1 0 0 	1 0 0 	1 0 0 	1 0 0 	1 0 0 	1 0 0 	1 0 0 	1 0 0 	1 0 0 	1 0 0 	1 0 0 	1 0 0 	1 0 0 	1 0 0 	1 0 0 	1 0 0 	1 0 0 	1 0 0 	1 0 0 	1 0 0 	
1 0 0 	1 0 0 	1 0 0 	1 0 0 	1 0 0 	1 0 0 	1 0 0 	1 0 0 	1 0 0 	1 0 0 	1 0 0 	1 0 0 	1 0 0 	1 0 0 	1 0 0 	1 0 0 	1 0 0 	1 0 0 	1 0 0 	1 0 0 	1 0 0 	1 0 0 	1 0 0 	1 0 0 	1 0 0 	1 0 0 	1 0 0 	1 0 0 	1 0 0 	1 0 0 	1 0 0 	1 0 0 	1 0 0 	1 0 0 	1 0 0 	1 0 0 	1 0 0 	1 0 0 	1 0 0 	1 0 0 	1 0 0 	1 0 0 	1 0 0 	1 0 0 	1 0 0 	1 0 0 	1 0 0 	1 0 0 	1 0 0 	1 0 0 	1 0 0 	1 0 0 	1 0 0 	1 0 0 	1 0 0 	1 0 0 	1 0 0 	1 0 0 	1 0 0 	1 0 0 	1 0 0 	1 0 0 	1 0 0 	1 0 0 	1 0 0 	1 0 0 	1 0 0 	1 0 0 	1 0 0 	1 0 0 	1 0 0 	1 0 0 	1 0 0 	1 0 0 	1 0 0 	1 0 0 	1 0 0 	1 0 0 	1 0 0 	1 0 0 	1 0 0 	1 0 0 	1 0 0 	1 0 0 	1 0 0 	1 0 0 	1 0 0 	1 0 0 	1 0 0 	1 0 0 	1 0 0 	1 0 0 	1 0 0 	1 0 0 	1 0 0 	1 0 0 	1 0 0 	1 0 0 	1 0 0 	1 0 0 	1 0 0 	1 0 0 	1 0 0 	1 0 0 	1 0 0 	1 0 0 	1 0 0 	1 0 0 	1 0 0 	1 0 0 	1 0 0 	1 0 0 	1 0 0 	1 0 0 	1 0 0 	1 0 0 	1 0 0 	1 0 0 	1 0 0 	1 0 0 	1 0 0 	1 0 0 	1 0 0 	1 0 0 	1 0 0 	1 0 0 	1 0 0 	1 0 0 	
1 0 0 	1 0 0 	1 0 0 	1 0 0 	1 0 0 	1 0 0 	1 0 0 	1 0 0 	1 0 0 	1 0 0 	1 0 0 	1 0 0 	1 0 0 	1 0 0 	1 0 0 	1 0 0 	1 0 0 	1 0 0 	1 0 0 	1 0 0 	1 0 0 	1 0 0 	1 0 0 	1 0 0 	1 0 0 	1 0 0 	1 0 0 	1 0 0 	1 0 0 	1 0 0 	1 0 0 	1 0 0 	1 0 0 	1 0 0 	1 0 0 	1 0 0 	1 0 0 	1 0 0 	1 0 0 	1 0 0 	1 0 0 	1 0 0 	1 0 0 	1 0 0 	1 0 0 	1 0 0 	1 0 0 	1 0 0 	1 0 0 	1 0 0 	1 0 0 	1 0 0 	1 0 0 	1 0 0 	1 0 0 	1 0 0 	1 0 0 	1 0 0 	1 0 0 	1 0 0 	1 0 0 	1 0 0 	1 0 0 	1 0 0 	1 0 0 	1 0 0 	1 0 0 	1 0 0 	1 0 0 	1 0 0 	1 0 0 	1 0 0 	1 0 0 	1 0 0 	1 0 0 	1 0 0 	1 0 0 	1 0 0 	1 0 0 	1 0 0 	1 0 0 	1 0 0 	1 0 0 	1 0 0 	1 0 0 	1 0 0 	1 0 0 	1 0 0 	1 0 0 	1 0 0 	1 0 0 	1 0 0 	1 0 0 	1 0 0 	1 0 0 	1 0 0 	1 0 0 	1 0 0 	1 0 0 	1 0 0 	1 0 0 	1 0 0 	1 0 0 	1 0 0 	1 0 0 	1 0 0 	1 0 0 	1 0 0 	1 0 0 	1 0 0 	1 0 0 	1 0 0 	1 0 0 	1 0 0 	1 0 0 	1 0 0 	1 0 0 	1 0 0 	1 0 0 	1 0 0 	1 0 0 	1 0 0 	1 0 0 	1 0 0 	1 0 0 	1 0 0 	1 0 0 	1 0 0 	
1 0 0 	1 0 0 	1 0 0 	1 0 0 	1 0 0 	1 0 0 	1 0 0 	1 0 0 	1 0 0 	1 0 0 	1 0 0 	1 0 0 	1 0 0 	1 0 0 	1 0 0 	1 0 0 	1 0 0 	1 0 0 	1 0 0 	1 0 0 	1 0 0 	1 0 0 	1 0 0 	1 0 0 	1 0 0 	1 0 0 	1 0 0 	1 0 0 	1 0 0 	1 0 0 	1 0 0 	1 0 0 	1 0 0 	1 0 0 	1 0 0 	1 0 0 	1 0 0 	1 0 0 	1 0 0 	1 0 0 	1 0 0 	1 0 0 	1 0 0 	1 0 0 	1 0 0 	1 0 0 	1 0 0 	1 0 0 	1 0 0 	1 0 0 	1 0 0 	1 0 0 	1 0 0 	1 0 0 	1 0 0 	1 0 0 	1 0 0 	1 0 0 	1 0 0 	1 0 0 	1 0 0 	1 0 0 	1 0 0 	1 0 0 	1 0 0 	1 0 0 	1 0 0 	1 0 0 	1 0 0 	1 0 0 	1 0 0 	1 0 0 	1 0 0 	1 0 0 	1 0 0 	1 0 0 	1 0 0 	1 0 0 	1 0 0 	1 0 0 	1 0 0 	1 0 0 	1 0 0 	1 0 0 	1 0 0 	1 0 0 	1 0 0 	1 0 0 	1 0 0 	1 0 0 	1 0 0 	1 0 0 	1 0 0 	1 0 0 	1 0 0 	1 0 0 	1 0 0 	1 0 0 	1 0 0 	1 0 0 	1 0 0 	1 0 0 	1 0 0 	1 0 0 	1 0 0 	1 0 0 	1 0 0 	1 0 0 	1 0 0 	1 0 0 	1 0 0 	1 0 0 	1 0 0 	1 0 0 	1 0 0 	1 0 0 	1 0 0 	1 0 0 	1 0 0 	1 0 0 	1 0 0 	1 0 0 	1 0 0 	1 0 0 	1 0 0 	1 0 0 	1 0 0 	1 0 0 	
1 0 0 	1 0 0 	1 0 0 	1 0 0 	1 0 0 	1 0 0 	1 0 0 	1 0 0 	1 0 0 	1 0 0 	1 0 0 	1 0 0 	1 0 0 	1 0 0 	1 0 0 	1 0 0 	1 0 0 	1 0 0 	1 0 0 	1 0 0 	1 0 0 	1 0 0 	1 0 0 	1 0 0 	1 0 0 	1 0 0 	1 0 0 	1 0 0 	1 0 0 	1 0 0 	1 0 0 	1 0 0 	1 0 0 	1 0 0 	1 0 0 	1 0 0 	1 0 0 	1 0 0 	1 0 0 	1 0 0 	1 0 0 	1 0 0 	1 0 0 	1 0 0 	1 0 0 	1 0 0 	1 0 0 	1 0 0 	1 0 0 	1 0 0 	1 0 0 	1 0 0 	1 0 0 	1 0 0 	1 0 0 	1 0 0 	1 0 0 	1 0 0 	1 0 0 	1 0 0 	1 0 0 	1 0 0 	1 0 0 	1 0 0 	1 0 0 	1 0 0 	1 0 0 	1 0 0 	1 0 0 	1 0 0 	1 0 0 	1 0 0 	1 0 0 	1 0 0 	1 0 0 	1 0 0 	1 0 0 	1 0 0 	1 0 0 	1 0 0 	1 0 0 	1 0 0 	1 0 0 	1 0 0 	1 0 0 	1 0 0 	1 0 0 	1 0 0 	1 0 0 	1 0 0 	1 0 0 	1 0 0 	1 0 0 	1 0 0 	1 0 0 	1 0 0 	1 0 0 	1 0 0 	1 0 0 	1 0 0 	1 0 0 	1 0 0 	1 0 0 	1 0 0 	1 0 0 	1 0 0 	1 0 0 	1 0 0 	1 0 0 	1 0 0 	1 0 0 	1 0 0 	1 0 0 	1 0 0 	1 0 0 	1 0 0 	1 0 0 	1 0 0 	1 0 0 	1 0 0 	1 0 0 	1 0 0 	1 0 0 	1 0 0 	1 0 0 	1 0 0 	1 0 0 	1 0 0 	
1 0 0 	1 0 0 	1 0 0 	1 0 0 	1 0 0 	1 0 0 	1 0 0 	1 0 0 	1 0 0 	1 0 0 	1 0 0 	1 0 0 	1 0 0 	1 0 0 	1 0 0 	1 0 0 	1 0 0 	1 0 0 	1 0 0 	1 0 0 	1 0 0 	1 0 0 	1 0 0 	1 0 0 	1 0 0 	1 0 0 	1 0 0 	1 0 0 	1 0 0 	1 0 0 	1 0 0 	1 0 0 	1 0 0 	1 0 0 	1 0 0 	1 0 0 	1 0 0 	1 0 0 	1 0 0 	1 0 0 	1 0 0 	1 0 0 	1 0 0 	1 0 0 	1 0 0 	1 0 0 	1 0 0 	1 0 0 	1 0 0 	1 0 0 	1 0 0 	1 0 0 	1 0 0 	1 0 0 	1 0 0 	1 0 0 	1 0 0 	1 0 0 	1 0 0 	1 0 0 	1 0 0 	1 0 0 	1 0 0 	1 0 0 	1 0 0 	1 0 0 	1 0 0 	1 0 0 	1 0 0 	1 0 0 	1 0 0 	1 0 0 	1 0 0 	1 0 0 	1 0 0 	1 0 0 	1 0 0 	1 0 0 	1 0 0 	1 0 0 	1 0 0 	1 0 0 	1 0 0 	1 0 0 	1 0 0 	1 0 0 	1 0 0 	1 0 0 	1 0 0 	1 0 0 	1 0 0 	1 0 0 	1 0 0 	1 0 0 	1 0 0 	1 0 0 	1 0 0 	1 0 0 	1 0 0 	1 0 0 	1 0 0 	1 0 0 	1 0 0 	1 0 0 	1 0 0 	1 0 0 	1 0 0 	1 0 0 	1 0 0 	1 0 0 	1 0 0 	1 0 0 	1 0 0 	1 0 0 	1 0 0 	1 0 0 	1 0 0 	1 0 0 	1 0 0 	1 0 0 	1 0 0 	1 0 0 	1 0 0 	1 0 0 	1 0 0 	1 0 0 	1 0 0 	1 0 0 	
1 0 0 	1 0 0 	1 0 0 	1 0 0 	1 0 0 	1 0 0 	1 0 0 	1 0 0 	1 0 0 	1 0 0 	1 0 0 	1 0 0 	1 0 0 	1 0 0 	1 0 0 	1 0 0 	1 0 0 	1 0 0 	1 0 0 	1 0 0 	1 0 0 	1 0 0 	1 0 0 	1 0 0 	1 0 0 	1 0 0 	1 0 0 	1 0 0 	1 0 0 	1 0 0 	1 0 0 	1 0 0 	1 0 0 	1 0 0 	1 0 0 	1 0 0 	1 0 0 	1 0 0 	1 0 0 	1 0 0 	1 0 0 	1 0 0 	1 0 0 	1 0 0 	1 0 0 	1 0 0 	1 0 0 	1 0 0 	1 0 0 	1 0 0 	1 0 0 	1 0 0 	1 0 0 	1 0 0 	1 0 0 	1 0 0 	1 0 0 	1 0 0 	1 0 0 	1 0 0 	1 0 0 	1 0 0 	1 0 0 	1 0 0 	1 0 0 	1 0 0 	1 0 0 	1 0 0 	1 0 0 	1 0 0 	1 0 0 	1 0 0 	1 0 0 	1 0 0 	1 0 0 	1 0 0 	1 0 0 	1 0 0 	1 0 0 	1 0 0 	1 0 0 	1 0 0 	1 0 0 	1 0 0 	1 0 0 	1 0 0 	1 0 0 	1 0 0 	1 0 0 	1 0 0 	1 0 0 	1 0 0 	1 0 0 	1 0 0 	1 0 0 	1 0 0 	1 0 0 	1 0 0 	1 0 0 	1 0 0 	1 0 0 	1 0 0 	1 0 0 	1 0 0 	1 0 0 	1 0 0 	1 0 0 	1 0 0 	1 0 0 	1 0 0 	1 0 0 	1 0 0 	1 0 0 	1 0 0 	1 0 0 	1 0 0 	1 0 0 	1 0 0 	1 0 0 	1 0 0 	1 0 0 	1 0 0 	1 0 0 	1 0 0 	1 0 0 	1 0 0 	1 0 0 	1 0 0 	
1 0 0 	1 0 0 	1 0 0 	1 0 0 	1 0 0 	1 0 0 	1 0 0 	1 0 0 	1 0 0 	1 0 0 	1 0 0 	1 0 0 	1 0 0 	1 0 0 	1 0 0 	1 0 0 	1 0 0 	1 0 0 	1 0 0 	1 0 0 	1 0 0 	1 0 0 	1 0 0 	1 0 0 	1 0 0 	1 0 0 	1 0 0 	1 0 0 	1 0 0 	1 0 0 	1 0 0 	1 0 0 	1 0 0 	1 0 0 	1 0 0 	1 0 0 	1 0 0 	1 0 0 	1 0 0 	1 0 0 	1 0 0 	1 0 0 	1 0 0 	1 0 0 	1 0 0 	1 0 0 	1 0 0 	1 0 0 	1 0 0 	1 0 0 	1 0 0 	1 0 0 	1 0 0 	1 0 0 	1 0 0 	1 0 0 	1 0 0 	1 0 0 	1 0 0 	1 0 0 	1 0 0 	1 0 0 	1 0 0 	1 0 0 	1 0 0 	1 0 0 	1 0 0 	1 0 0 	1 0 0 	1 0 0 	1 0 0 	1 0 0 	1 0 0 	1 0 0 	1 0 0 	1 0 0 	1 0 0 	1 0 0 	1 0 0 	1 0 0 	1 0 0 	1 0 0 	1 0 0 	1 0 0 	1 0 0 	1 0 0 	1 0 0 	1 0 0 	1 0 0 	1 0 0 	1 0 0 	1 0 0 	1 0 0 	1 0 0 	1 0 0 	1 0 0 	1 0 0 	1 0 0 	1 0 0 	1 0 0 	1 0 0 	1 0 0 	1 0 0 	1 0 0 	1 0 0 	1 0 0 	1 0 0 	1 0 0 	1 0 0 	1 0 0 	1 0 0 	1 0 0 	1 0 0 	1 0 0 	1 0 0 	1 0 0 	1 0 0 	1 0 0 	1 0 0 	1 0 0 	1 0 0 	1 0 0 	1 0 0 	1 0 0 	1 0 0 	1 0 0 	1 0 0 	1 0 0 	
1 0 0 	1 0 0 	1 0 0 	1 0 0 	1 0 0 	1 0 0 	1 0 0 	1 0 0 	1 0 0 	1 0 0 	1 0 0 	1 0 0 	1 0 0 	1 0 0 	1 0 0 	1 0 0 	1 0 0 	1 0 0 	1 0 0 	1 0 0 	1 0 0 	1 0 0 	1 0 0 	1 0 0 	1 0 0 	1 0 0 	1 0 0 	1 0 0 	1 0 0 	1 0 0 	1 0 0 	1 0 0 	1 0 0 	1 0 0 	1 0 0 	1 0 0 	1 0 0 	1 0 0 	1 0 0 	1 0 0 	1 0 0 	1 0 0 	1 0 0 	1 0 0 	1 0 0 	1 0 0 	1 0 0 	1 0 0 	1 0 0 	1 0 0 	1 0 0 	1 0 0 	1 0 0 	1 0 0 	1 0 0 	1 0 0 	1 0 0 	1 0 0 	1 0 0 	1 0 0 	1 0 0 	1 0 0 	1 0 0 	1 0 0 	1 0 0 	1 0 0 	1 0 0 	1 0 0 	1 0 0 	1 0 0 	1 0 0 	1 0 0 	1 0 0 	1 0 0 	1 0 0 	1 0 0 	1 0 0 	1 0 0 	1 0 0 	1 0 0 	1 0 0 	1 0 0 	1 0 0 	1 0 0 	1 0 0 	1 0 0 	1 0 0 	1 0 0 	1 0 0 	1 0 0 	1 0 0 	1 0 0 	1 0 0 	1 0 0 	1 0 0 	1 0 0 	1 0 0 	1 0 0 	1 0 0 	1 0 0 	1 0 0 	1 0 0 	1 0 0 	1 0 0 	1 0 0 	1 0 0 	1 0 0 	1 0 0 	1 0 0 	1 0 0 	1 0 0 	1 0 0 	1 0 0 	1 0 0 	1 0 0 	1 0 0 	1 0 0 	1 0 0 	1 0 0 	1 0 0 	1 0 0 	1 0 0 	1 0 0 	1 0 0 	1 0 0 	1 0 0 	1 0 0 	1 0 0 	
1 0 0 	1 0 0 	1 0 0 	1 0 0 	1 0 0 	1 0 0 	1 0 0 	1 0 0 	1 0 0 	1 0 0 	1 0 0 	1 0 0 	1 0 0 	1 0 0 	1 0 0 	1 0 0 	1 0 0 	1 0 0 	1 0 0 	1 0 0 	1 0 0 	1 0 0 	1 0 0 	1 0 0 	1 0 0 	1 0 0 	1 0 0 	1 0 0 	1 0 0 	1 0 0 	1 0 0 	1 0 0 	1 0 0 	1 0 0 	1 0 0 	1 0 0 	1 0 0 	1 0 0 	1 0 0 	1 0 0 	1 0 0 	1 0 0 	1 0 0 	1 0 0 	1 0 0 	1 0 0 	1 0 0 	1 0 0 	1 0 0 	1 0 0 	1 0 0 	1 0 0 	1 0 0 	1 0 0 	1 0 0 	1 0 0 	1 0 0 	1 0 0 	1 0 0 	1 0 0 	1 0 0 	1 0 0 	1 0 0 	1 0 0 	1 0 0 	1 0 0 	1 0 0 	1 0 0 	1 0 0 	1 0 0 	1 0 0 	1 0 0 	1 0 0 	1 0 0 	1 0 0 	1 0 0 	1 0 0 	1 0 0 	1 0 0 	1 0 0 	1 0 0 	1 0 0 	1 0 0 	1 0 0 	1 0 0 	1 0 0 	1 0 0 	1 0 0 	1 0 0 	1 0 0 	1 0 0 	1 0 0 	1 0 0 	1 0 0 	1 0 0 	1 0 0 	1 0 0 	1 0 0 	1 0 0 	1 0 0 	1 0 0 	1 0 0 	1 0 0 	1 0 0 	1 0 0 	1 0 0 	1 0 0 	1 0 0 	1 0 0 	1 0 0 	1 0 0 	1 0 0 	1 0 0 	1 0 0 	1 0 0 	1 0 0 	1 0 0 	1 0 0 	1 0 0 	1 0 0 	1 0 0 	1 0 0 	1 0 0 	1 0 0 	1 0 0 	1 0 0 	1 0 0 	1 0 0 	
1 0 0 	1 0 0 	1 0 0 	1 0 0 	1 0 0 	1 0 0 	1 0 0 	1 0 0 	1 0 0 	1 0 0 	1 0 0 	1 0 0 	1 0 0 	1 0 0 	1 0 0 	1 0 0 	1 0 0 	1 0 0 	1 0 0 	1 0 0 	1 0 0 	1 0 0 	1 0 0 	1 0 0 	1 0 0 	1 0 0 	1 0 0 	1 0 0 	1 0 0 	1 0 0 	1 0 0 	1 0 0 	1 0 0 	1 0 0 	1 0 0 	1 0 0 	1 0 0 	1 0 0 	1 0 0 	1 0 0 	1 0 0 	1 0 0 	1 0 0 	1 0 0 	1 0 0 	1 0 0 	1 0 0 	1 0 0 	1 0 0 	1 0 0 	1 0 0 	1 0 0 	1 0 0 	1 0 0 	1 0 0 	1 0 0 	1 0 0 	1 0 0 	1 0 0 	1 0 0 	1 0 0 	1 0 0 	1 0 0 	1 0 0 	1 0 0 	1 0 0 	1 0 0 	1 0 0 	1 0 0 	1 0 0 	1 0 0 	1 0 0 	1 0 0 	1 0 0 	1 0 0 	1 0 0 	1 0 0 	1 0 0 	1 0 0 	1 0 0 	1 0 0 	1 0 0 	1 0 0 	1 0 0 	1 0 0 	1 0 0 	1 0 0 	1 0 0 	1 0 0 	1 0 0 	1 0 0 	1 0 0 	1 0 0 	1 0 0 	1 0 0 	1 0 0 	1 0 0 	1 0 0 	1 0 0 	1 0 0 	1 0 0 	1 0 0 	1 0 0 	1 0 0 	1 0 0 	1 0 0 	1 0 0 	1 0 0 	1 0 0 	1 0 0 	1 0 0 	1 0 0 	1 0 0 	1 0 0 	1 0 0 	1 0 0 	1 0 0 	1 0 0 	1 0 0 	1 0 0 	1 0 0 	1 0 0 	1 0 0 	1 0 0 	1 0 0 	1 0 0 	1 0 0 	1 0 0 	
1 0 0 	1 0 0 	1 0 0 	1 0 0 	1 0 0 	1 0 0 	1 0 0 	1 0 0 	1 0 0 	1 0 0 	1 0 0 	1 0 0 	1 0 0 	1 0 0 	1 0 0 	1 0 0 	1 0 0 	1 0 0 	1 0 0 	1 0 0 	1 0 0 	1 0 0 	1 0 0 	1 0 0 	1 0 0 	1 0 0 	1 0 0 	1 0 0 	1 0 0 	1 0 0 	1 0 0 	1 0 0 	1 0 0 	1 0 0 	1 0 0 	1 0 0 	1 0 0 	1 0 0 	1 0 0 	1 0 0 	1 0 0 	1 0 0 	1 0 0 	1 0 0 	1 0 0 	1 0 0 	1 0 0 	1 0 0 	1 0 0 	1 0 0 	1 0 0 	1 0 0 	1 0 0 	1 0 0 	1 0 0 	1 0 0 	1 0 0 	1 0 0 	1 0 0 	1 0 0 	1 0 0 	1 0 0 	1 0 0 	1 0 0 	1 0 0 	1 0 0 	1 0 0 	1 0 0 	1 0 0 	1 0 0 	1 0 0 	1 0 0 	1 0 0 	1 0 0 	1 0 0 	1 0 0 	1 0 0 	1 0 0 	1 0 0 	1 0 0 	1 0 0 	1 0 0 	1 0 0 	1 0 0 	1 0 0 	1 0 0 	1 0 0 	1 0 0 	1 0 0 	1 0 0 	1 0 0 	1 0 0 	1 0 0 	1 0 0 	1 0 0 	1 0 0 	1 0 0 	1 0 0 	1 0 0 	1 0 0 	1 0 0 	1 0 0 	1 0 0 	1 0 0 	1 0 0 	1 0 0 	1 0 0 	1 0 0 	1 0 0 	1 0 0 	1 0 0 	1 0 0 	1 0 0 	1 0 0 	1 0 0 	1 0 0 	1 0 0 	1 0 0 	1 0 0 	1 0 0 	1 0 0 	1 0 0 	1 0 0 	1 0 0 	1 0 0 	1 0 0 	1 0 0 	1 0 0 	
1 0 0 	1 0 0 	1 0 0 	1 0 0 	1 0 0 	1 0 0 	1 0 0 	1 0 0 	1 0 0 	1 0 0 	1 0 0 	1 0 0 	1 0 0 	1 0 0 	1 0 0 	1 0 0 	1 0 0 	1 0 0 	1 0 0 	1 0 0 	1 0 0 	1 0 0 	1 0 0 	1 0 0 	1 0 0 	1 0 0 	1 0 0 	1 0 0 	1 0 0 	1 0 0 	1 0 0 	1 0 0 	1 0 0 	1 0 0 	1 0 0 	1 0 0 	1 0 0 	1 0 0 	1 0 0 	1 0 0 	1 0 0 	1 0 0 	1 0 0 	1 0 0 	1 0 0 	1 0 0 	1 0 0 	1 0 0 	1 0 0 	1 0 0 	1 0 0 	1 0 0 	1 0 0 	1 0 0 	1 0 0 	1 0 0 	1 0 0 	1 0 0 	1 0 0 	1 0 0 	1 0 0 	1 0 0 	1 0 0 	1 0 0 	1 0 0 	1 0 0 	1 0 0 	1 0 0 	1 0 0 	1 0 0 	1 0 0 	1 0 0 	1 0 0 	1 0 0 	1 0 0 	1 0 0 	1 0 0 	1 0 0 	1 0 0 	1 0 0 	1 0 0 	1 0 0 	1 0 0 	1 0 0 	1 0 0 	1 0 0 	1 0 0 	1 0 0 	1 0 0 	1 0 0 	1 0 0 	1 0 0 	1 0 0 	1 0 0 	1 0 0 	1 0 0 	1 0 0 	1 0 0 	1 0 0 	1 0 0 	1 0 0 	1 0 0 	1 0 0 	1 0 0 	1 0 0 	1 0 0 	1 0 0 	1 0 0 	1 0 0 	1 0 0 	1 0 0 	1 0 0 	1 0 0 	1 0 0 	1 0 0 	1 0 0 	1 0 0 	1 0 0 	1 0 0 	1 0 0 	1 0 0 	1 0 0 	1 0 0 	1 0 0 	1 0 0 	1 0 0 	1 0 0 	1 0 0 	
1 0 0 	1 0 0 	1 0 0 	1 0 0 	1 0 0 	1 0 0 	1 0 0 	1 0 0 	1 0 0 	1 0 0 	1 0 0 	1 0 0 	1 0 0 	1 0 0 	1 0 0 	1 0 0 	1 0 0 	1 0 0 	1 0 0 	1 0 0 	1 0 0 	1 0 0 	1 0 0 	1 0 0 	1 0 0 	1 0 0 	1 0 0 	1 0 0 	1 0 0 	1 0 0 	1 0 0 	1 0 0 	1 0 0 	1 0 0 	1 0 0 	1 0 0 	1 0 0 	1 0 0 	1 0 0 	1 0 0 	1 0 0 	1 0 0 	1 0 0 	1 0 0 	1 0 0 	1 0 0 	1 0 0 	1 0 0 	1 0 0 	1 0 0 	1 0 0 	1 0 0 	1 0 0 	1 0 0 	1 0 0 	1 0 0 	1 0 0 	1 0 0 	1 0 0 	1 0 0 	1 0 0 	1 0 0 	1 0 0 	1 0 0 	1 0 0 	1 0 0 	1 0 0 	1 0 0 	1 0 0 	1 0 0 	1 0 0 	1 0 0 	1 0 0 	1 0 0 	1 0 0 	1 0 0 	1 0 0 	1 0 0 	1 0 0 	1 0 0 	1 0 0 	1 0 0 	1 0 0 	1 0 0 	1 0 0 	1 0 0 	1 0 0 	1 0 0 	1 0 0 	1 0 0 	1 0 0 	1 0 0 	1 0 0 	1 0 0 	1 0 0 	1 0 0 	1 0 0 	1 0 0 	1 0 0 	1 0 0 	1 0 0 	1 0 0 	1 0 0 	1 0 0 	1 0 0 	1 0 0 	1 0 0 	1 0 0 	1 0 0 	1 0 0 	1 0 0 	1 0 0 	1 0 0 	1 0 0 	1 0 0 	1 0 0 	1 0 0 	1 0 0 	1 0 0 	1 0 0 	1 0 0 	1 0 0 	1 0 0 	1 0 0 	1 0 0 	1 0 0 	1 0 0 	1 0 0 	
1 0 0 	1 0 0 	1 0 0 	1 0 0 	1 0 0 	1 0 0 	1 0 0 	1 0 0 	1 0 0 	1 0 0 	1 0 0 	1 0 0 	1 0 0 	1 0 0 	1 0 0 	1 0 0 	1 0 0 	1 0 0 	1 0 0 	1 0 0 	1 0 0 	1 0 0 	1 0 0 	1 0 0 	1 0 0 	1 0 0 	1 0 0 	1 0 0 	1 0 0 	1 0 0 	1 0 0 	1 0 0 	1 0 0 	1 0 0 	1 0 0 	1 0 0 	1 0 0 	1 0 0 	1 0 0 	1 0 0 	1 0 0 	1 0 0 	1 0 0 	1 0 0 	1 0 0 	1 0 0 	1 0 0 	1 0 0 	1 0 0 	1 0 0 	1 0 0 	1 0 0 	1 0 0 	1 0 0 	1 0 0 	1 0 0 	1 0 0 	1 0 0 	1 0 0 	1 0 0 	1 0 0 	1 0 0 	1 0 0 	1 0 0 	1 0 0 	1 0 0 	1 0 0 	1 0 0 	1 0 0 	1 0 0 	1 0 0 	1 0 0 	1 0 0 	1 0 0 	1 0 0 	1 0 0 	1 0 0 	1 0 0 	1 0 0 	1 0 0 	1 0 0 	1 0 0 	1 0 0 	1 0 0 	1 0 0 	1 0 0 	1 0 0 	1 0 0 	1 0 0 	1 0 0 	1 0 0 	1 0 0 	1 0 0 	1 0 0 	1 0 0 	1 0 0 	1 0 0 	1 0 0 	1 0 0 	1 0 0 	1 0 0 	1 0 0 	1 0 0 	1 0 0 	1 0 0 	1 0 0 	1 0 0 	1 0 0 	1 0 0 	1 0 0 	1 0 0 	1 0 0 	1 0 0 	1 0 0 	1 0 0 	1 0 0 	1 0 0 	1 0 0 	1 0 0 	1 0 0 	1 0 0 	1 0 0 	1 0 0 	1 0 0 	1 0 0 	1 0 0 	1 0 0 	1 0 0 	
1 0 0 	1 0 0 	1 0 0 	1 0 0 	1 0 0 	1 0 0 	1 0 0 	1 0 0 	1 0 0 	1 0 0 	1 0 0 	1 0 0 	1 0 0 	1 0 0 	1 0 0 	1 0 0 	1 0 0 	1 0 0 	1 0 0 	1 0 0 	1 0 0 	1 0 0 	1 0 0 	1 0 0 	1 0 0 	1 0 0 	1 0 0 	1 0 0 	1 0 0 	1 0 0 	1 0 0 	1 0 0 	1 0 0 	1 0 0 	1 0 0 	1 0 0 	1 0 0 	1 0 0 	1 0 0 	1 0 0 	1 0 0 	1 0 0 	1 0 0 	1 0 0 	1 0 0 	1 0 0 	1 0 0 	1 0 0 	1 0 0 	1 0 0 	1 0 0 	1 0 0 	1 0 0 	1 0 0 	1 0 0 	1 0 0 	1 0 0 	1 0 0 	1 0 0 	1 0 0 	1 0 0 	1 0 0 	1 0 0 	1 0 0 	1 0 0 	1 0 0 	1 0 0 	1 0 0 	1 0 0 	1 0 0 	1 0 0 	1 0 0 	1 0 0 	1 0 0 	1 0 0 	1 0 0 	1 0 0 	1 0 0 	1 0 0 	1 0 0 	1 0 0 	1 0 0 	1 0 0 	1 0 0 	1 0 0 	1 0 0 	1 0 0 	1 0 0 	1 0 0 	1 0 0 	1 0 0 	1 0 0 	1 0 0 	1 0 0 	1 0 0 	1 0 0 	1 0 0 	1 0 0 	1 0 0 	1 0 0 	1 0 0 	1 0 0 	1 0 0 	1 0 0 	1 0 0 	1 0 0 	1 0 0 	1 0 0 	1 0 0 	1 0 0 	1 0 0 	1 0 0 	1 0 0 	1 0 0 	1 0 0 	1 0 0 	1 0 0 	1 0 0 	1 0 0 	1 0 0 	1 0 0 	1 0 0 	1 0 0 	1 0 0 	1 0 0 	1 0 0 	1 0 0 	1 0 0 	
1 0 0 	1 0 0 	1 0 0 	1 0 0 	1 0 0 	1 0 0 	1 0 0 	1 0 0 	1 0 0 	1 0 0 	1 0 0 	1 0 0 	1 0 0 	1 0 0 	1 0 0 	1 0 0 	1 0 0 	1 0 0 	1 0 0 	1 0 0 	1 0 0 	1 0 0 	1 0 0 	1 0 0 	1 0 0 	1 0 0 	1 0 0 	1 0 0 	1 0 0 	1 0 0 	1 0 0 	1 0 0 	1 0 0 	1 0 0 	1 0 0 	1 0 0 	1 0 0 	1 0 0 	1 0 0 	1 0 0 	1 0 0 	1 0 0 	1 0 0 	1 0 0 	1 0 0 	1 0 0 	1 0 0 	1 0 0 	1 0 0 	1 0 0 	1 0 0 	1 0 0 	1 0 0 	1 0 0 	1 0 0 	1 0 0 	1 0 0 	1 0 0 	1 0 0 	1 0 0 	1 0 0 	1 0 0 	1 0 0 	1 0 0 	1 0 0 	1 0 0 	1 0 0 	1 0 0 	1 0 0 	1 0 0 	1 0 0 	1 0 0 	1 0 0 	1 0 0 	1 0 0 	1 0 0 	1 0 0 	1 0 0 	1 0 0 	1 0 0 	1 0 0 	1 0 0 	1 0 0 	1 0 0 	1 0 0 	1 0 0 	1 0 0 	1 0 0 	1 0 0 	1 0 0 	1 0 0 	1 0 0 	1 0 0 	1 0 0 	1 0 0 	1 0 0 	1 0 0 	1 0 0 	1 0 0 	1 0 0 	1 0 0 	1 0 0 	1 0 0 	1 0 0 	1 0 0 	1 0 0 	1 0 0 	1 0 0 	1 0 0 	1 0 0 	1 0 0 	1 0 0 	1 0 0 	1 0 0 	1 0 0 	1 0 0 	1 0 0 	1 0 0 	1 0 0 	1 0 0 	1 0 0 	1 0 0 	1 0 0 	1 0 0 	1 0 0 	1 0 0 	1 0 0 	1 0 0 	
1 0 0 	1 0 0 	1 0 0 	1 0 0 	1 0 0 	1 0 0 	1 0 0 	1 0 0 	1 0 0 	1 0 0 	1 0 0 	1 0 0 	1 0 0 	1 0 0 	1 0 0 	1 0 0 	1 0 0 	1 0 0 	1 0 0 	1 0 0 	1 0 0 	1 0 0 	1 0 0 	1 0 0 	1 0 0 	1 0 0 	1 0 0 	1 0 0 	1 0 0 	1 0 0 	1 0 0 	1 0 0 	1 0 0 	1 0 0 	1 0 0 	1 0 0 	1 0 0 	1 0 0 	1 0 0 	1 0 0 	1 0 0 	1 0 0 	1 0 0 	1 0 0 	1 0 0 	1 0 0 	1 0 0 	1 0 0 	1 0 0 	1 0 0 	1 0 0 	1 0 0 	1 0 0 	1 0 0 	1 0 0 	1 0 0 	1 0 0 	1 0 0 	1 0 0 	1 0 0 	1 0 0 	1 0 0 	1 0 0 	1 0 0 	1 0 0 	1 0 0 	1 0 0 	1 0 0 	1 0 0 	1 0 0 	1 0 0 	1 0 0 	1 0 0 	1 0 0 	1 0 0 	1 0 0 	1 0 0 	1 0 0 	1 0 0 	1 0 0 	1 0 0 	1 0 0 	1 0 0 	1 0 0 	1 0 0 	1 0 0 	1 0 0 	1 0 0 	1 0 0 	1 0 0 	1 0 0 	1 0 0 	1 0 0 	1 0 0 	1 0 0 	1 0 0 	1 0 0 	1 0 0 	1 0 0 	1 0 0 	1 0 0 	1 0 0 	1 0 0 	1 0 0 	1 0 0 	1 0 0 	1 0 0 	1 0 0 	1 0 0 	1 0 0 	1 0 0 	1 0 0 	1 0 0 	1 0 0 	1 0 0 	1 0 0 	1 0 0 	1 0 0 	1 0 0 	1 0 0 	1 0 0 	1 0 0 	1 0 0 	1 0 0 	1 0 0 	1 0 0 	1 0 0 	1 0 0 	
1 0 0 	1 0 0 	1 0 0 	1 0 0 	1 0 0 	1 0 0 	1 0 0 	1 0 0 	1 0 0 	1 0 0 	1 0 0 	1 0 0 	1 0 0 	1 0 0 	1 0 0 	1 0 0 	1 0 0 	1 0 0 	1 0 0 	1 0 0 	1 0 0 	1 0 0 	1 0 0 	1 0 0 	1 0 0 	1 0 0 	1 0 0 	1 0 0 	1 0 0 	1 0 0 	1 0 0 	1 0 0 	1 0 0 	1 0 0 	1 0 0 	1 0 0 	1 0 0 	1 0 0 	1 0 0 	1 0 0 	1 0 0 	1 0 0 	1 0 0 	1 0 0 	1 0 0 	1 0 0 	1 0 0 	1 0 0 	1 0 0 	1 0 0 	1 0 0 	1 0 0 	1 0 0 	1 0 0 	1 0 0 	1 0 0 	1 0 0 	1 0 0 	1 0 0 	1 0 0 	1 0 0 	1 0 0 	1 0 0 	1 0 0 	1 0 0 	1 0 0 	1 0 0 	1 0 0 	1 0 0 	1 0 0 	1 0 0 	1 0 0 	1 0 0 	1 0 0 	1 0 0 	1 0 0 	1 0 0 	1 0 0 	1 0 0 	1 0 0 	1 0 0 	1 0 0 	1 0 0 	1 0 0 	1 0 0 	1 0 0 	1 0 0 	1 0 0 	1 0 0 	1 0 0 	1 0 0 	1 0 0 	1 0 0 	1 0 0 	1 0 0 	1 0 0 	1 0 0 	1 0 0 	1 0 0 	1 0 0 	1 0 0 	1 0 0 	1 0 0 	1 0 0 	1 0 0 	1 0 0 	1 0 0 	1 0 0 	1 0 0 	1 0 0 	1 0 0 	1 0 0 	1 0 0 	1 0 0 	1 0 0 	1 0 0 	1 0 0 	1 0 0 	1 0 0 	1 0 0 	1 0 0 	1 0 0 	1 0 0 	1 0 0 	1 0 0 	1 0 0 	1 0 0 	1 0 0 	
1 0 0 	1 0 0 	1 0 0 	1 0 0 	1 0 0 	1 0 0 	1 0 0 	1 0 0 	1 0 0 	1 0 0 	1 0 0 	1 0 0 	1 0 0 	1 0 0 	1 0 0 	1 0 0 	1 0 0 	1 0 0 	1 0 0 	1 0 0 	1 0 0 	1 0 0 	1 0 0 	1 0 0 	1 0 0 	1 0 0 	1 0 0 	1 0 0 	1 0 0 	1 0 0 	1 0 0 	1 0 0 	1 0 0 	1 0 0 	1 0 0 	1 0 0 	1 0 0 	1 0 0 	1 0 0 	1 0 0 	1 0 0 	1 0 0 	1 0 0 	1 0 0 	1 0 0 	1 0 0 	1 0 0 	1 0 0 	1 0 0 	1 0 0 	1 0 0 	1 0 0 	1 0 0 	1 0 0 	1 0 0 	1 0 0 	1 0 0 	1 0 0 	1 0 0 	1 0 0 	1 0 0 	1 0 0 	1 0 0 	1 0 0 	1 0 0 	1 0 0 	1 0 0 	1 0 0 	1 0 0 	1 0 0 	1 0 0 	1 0 0 	1 0 0 	1 0 0 	1 0 0 	1 0 0 	1 0 0 	1 0 0 	1 0 0 	1 0 0 	1 0 0 	1 0 0 	1 0 0 	1 0 0 	1 0 0 	1 0 0 	1 0 0 	1 0 0 	1 0 0 	1 0 0 	1 0 0 	1 0 0 	1 0 0 	1 0 0 	1 0 0 	1 0 0 	1 0 0 	1 0 0 	1 0 0 	1 0 0 	1 0 0 	1 0 0 	1 0 0 	1 0 0 	1 0 0 	1 0 0 	1 0 0 	1 0 0 	1 0 0 	1 0 0 	1 0 0 	1 0 0 	1 0 0 	1 0 0 	1 0 0 	1 0 0 	1 0 0 	1 0 0 	1 0 0 	1 0 0 	1 0 0 	1 0 0 	1 0 0 	1 0 0 	1 0 0 	1 0 0 	1 0 0 	1 0 0 	
1 0 0 	1 0 0 	1 0 0 	1 0 0 	1 0 0 	1 0 0 	1 0 0 	1 0 0 	1 0 0 	1 0 0 	1 0 0 	1 0 0 	1 0 0 	1 0 0 	1 0 0 	1 0 0 	1 0 0 	1 0 0 	1 0 0 	1 0 0 	1 0 0 	1 0 0 	1 0 0 	1 0 0 	1 0 0 	1 0 0 	1 0 0 	1 0 0 	1 0 0 	1 0 0 	1 0 0 	1 0 0 	1 0 0 	1 0 0 	1 0 0 	1 0 0 	1 0 0 	1 0 0 	1 0 0 	1 0 0 	1 0 0 	1 0 0 	1 0 0 	1 0 0 	1 0 0 	1 0 0 	1 0 0 	1 0 0 	1 0 0 	1 0 0 	1 0 0 	1 0 0 	1 0 0 	1 0 0 	1 0 0 	1 0 0 	1 0 0 	1 0 0 	1 0 0 	1 0 0 	1 0 0 	1 0 0 	1 0 0 	1 0 0 	1 0 0 	1 0 0 	1 0 0 	1 0 0 	1 0 0 	1 0 0 	1 0 0 	1 0 0 	1 0 0 	1 0 0 	1 0 0 	1 0 0 	1 0 0 	1 0 0 	1 0 0 	1 0 0 	1 0 0 	1 0 0 	1 0 0 	1 0 0 	1 0 0 	1 0 0 	1 0 0 	1 0 0 	1 0 0 	1 0 0 	1 0 0 	1 0 0 	1 0 0 	1 0 0 	1 0 0 	1 0 0 	1 0 0 	1 0 0 	1 0 0 	1 0 0 	1 0 0 	1 0 0 	1 0 0 	1 0 0 	1 0 0 	1 0 0 	1 0 0 	1 0 0 	1 0 0 	1 0 0 	1 0 0 	1 0 0 	1 0 0 	1 0 0 	1 0 0 	1 0 0 	1 0 0 	1 0 0 	1 0 0 	1 0 0 	1 0 0 	1 0 0 	1 0 0 	1 0 0 	1 0 0 	1 0 0 	1 0 0 	1 0 0 	